# vtk DataFile Version 2.0
density_2
ASCII

DATASET STRUCTURED_POINTS
DIMENSIONS 12 12 12
ORIGIN 0.500000 0.500000 0.500000
SPACING 1.000000 1.000000 1.000000

POINT_DATA 1728
SCALARS density_2 float 1
LOOKUP_TABLE default
0.000000e+00
1.417030e-06
2.588654e-06
3.373695e-06
3.775368e-06
3.917895e-06
3.917895e-06
3.775369e-06
3.373696e-06
2.588654e-06
1.417030e-06
0.000000e+00
1.417030e-06
7.181290e-06
1.311248e-05
1.706507e-05
1.910415e-05
1.981467e-05
1.981467e-05
1.910416e-05
1.706508e-05
1.311248e-05
7.181290e-06
1.417030e-06
2.588654e-06
1.311248e-05
2.362859e-05
3.017713e-05
3.301751e-05
3.372539e-05
3.372540e-05
3.301751e-05
3.017714e-05
2.362860e-05
1.311248e-05
2.588654e-06
3.373695e-06
1.706507e-05
3.017713e-05
3.731321e-05
3.935396e-05
3.906543e-05
3.906544e-05
3.935397e-05
3.731321e-05
3.017714e-05
1.706508e-05
3.373696e-06
3.775368e-06
1.910415e-05
3.301750e-05
3.935395e-05
3.952751e-05
3.777846e-05
3.777846e-05
3.952751e-05
3.935397e-05
3.301751e-05
1.910416e-05
3.775369e-06
3.917895e-06
1.981467e-05
3.372538e-05
3.906543e-05
3.777846e-05
3.491472e-05
3.491472e-05
3.777847e-05
3.906545e-05
3.372540e-05
1.981467e-05
3.917895e-06
3.917895e-06
1.981467e-05
3.372538e-05
3.906543e-05
3.777846e-05
3.491472e-05
3.491472e-05
3.777847e-05
3.906545e-05
3.372540e-05
1.981467e-05
3.917896e-06
3.775368e-06
1.910415e-05
3.301750e-05
3.935395e-05
3.952751e-05
3.777846e-05
3.777847e-05
3.952752e-05
3.935397e-05
3.301752e-05
1.910416e-05
3.775369e-06
3.373695e-06
1.706507e-05
3.017713e-05
3.731321e-05
3.935396e-05
3.906544e-05
3.906545e-05
3.935397e-05
3.731321e-05
3.017714e-05
1.706508e-05
3.373696e-06
2.588654e-06
1.311248e-05
2.362859e-05
3.017713e-05
3.301751e-05
3.372540e-05
3.372540e-05
3.301751e-05
3.017714e-05
2.362859e-05
1.311248e-05
2.588654e-06
1.417030e-06
7.181290e-06
1.311248e-05
1.706507e-05
1.910415e-05
1.981467e-05
1.981467e-05
1.910416e-05
1.706507e-05
1.311248e-05
7.181291e-06
1.417030e-06
0.000000e+00
1.417030e-06
2.588654e-06
3.373695e-06
3.775368e-06
3.917894e-06
3.917895e-06
3.775369e-06
3.373696e-06
2.588654e-06
1.417030e-06
0.000000e+00
1.417030e-06
7.952545e-06
1.461956e-05
1.919898e-05
2.170356e-05
2.264643e-05
2.264643e-05
2.170356e-05
1.919899e-05
1.461956e-05
7.952545e-06
1.417030e-06
7.952545e-06
1.278683e-04
2.335921e-04
3.044318e-04
3.406775e-04
3.535387e-04
3.535387e-04
3.406776e-04
3.044319e-04
2.335921e-04
1.278683e-04
7.952545e-06
1.461956e-05
2.335921e-04
4.205804e-04
5.350981e-04
5.841381e-04
5.938187e-04
5.938188e-04
5.841383e-04
5.350981e-04
4.205805e-04
2.335921e-04
1.461956e-05
1.919898e-05
3.044317e-04
5.350981e-04
6.571974e-04
6.837070e-04
6.719926e-04
6.719927e-04
6.837071e-04
6.571977e-04
5.350981e-04
3.044319e-04
1.919899e-05
2.170355e-05
3.406775e-04
5.841381e-04
6.837068e-04
6.709432e-04
6.252844e-04
6.252845e-04
6.709433e-04
6.837071e-04
5.841384e-04
3.406776e-04
2.170356e-05
2.264642e-05
3.535387e-04
5.938185e-04
6.719925e-04
6.252844e-04
5.565050e-04
5.565051e-04
6.252845e-04
6.719929e-04
5.938188e-04
3.535387e-04
2.264643e-05
2.264642e-05
3.535387e-04
5.938185e-04
6.719924e-04
6.252844e-04
5.565050e-04
5.565050e-04
6.252846e-04
6.719928e-04
5.938189e-04
3.535388e-04
2.264643e-05
2.170355e-05
3.406775e-04
5.841381e-04
6.837069e-04
6.709432e-04
6.252844e-04
6.252846e-04
6.709434e-04
6.837072e-04
5.841384e-04
3.406776e-04
2.170356e-05
1.919898e-05
3.044317e-04
5.350981e-04
6.571976e-04
6.837071e-04
6.719927e-04
6.719928e-04
6.837072e-04
6.571978e-04
5.350981e-04
3.044319e-04
1.919899e-05
1.461955e-05
2.335921e-04
4.205804e-04
5.350980e-04
5.841381e-04
5.938188e-04
5.938189e-04
5.841384e-04
5.350980e-04
4.205804e-04
2.335921e-04
1.461956e-05
7.952545e-06
1.278684e-04
2.335921e-04
3.044317e-04
3.406774e-04
3.535386e-04
3.535388e-04
3.406776e-04
3.044318e-04
2.335921e-04
1.278684e-04
7.952545e-06
1.417030e-06
7.952545e-06
1.461956e-05
1.919898e-05
2.170355e-05
2.264642e-05
2.264643e-05
2.170356e-05
1.919899e-05
1.461956e-05
7.952545e-06
1.417030e-06
3.358204e-06
1.877316e-05
3.475115e-05
4.603259e-05
5.238590e-05
5.512760e-05
5.512761e-05
5.238592e-05
4.603261e-05
3.475116e-05
1.877316e-05
3.358204e-06
1.877316e-05
3.030338e-04
5.561612e-04
7.271583e-04
8.182677e-04
8.489254e-04
8.489256e-04
8.182679e-04
7.271589e-04
5.561612e-04
3.030338e-04
1.877316e-05
3.475115e-05
5.561613e-04
9.985580e-04
1.266256e-03
1.366895e-03
1.381910e-03
1.381911e-03
1.366895e-03
1.266256e-03
9.985580e-04
5.561613e-04
3.475116e-05
4.603259e-05
7.271582e-04
1.266256e-03
1.516304e-03
1.546738e-03
1.458738e-03
1.458738e-03
1.546739e-03
1.516305e-03
1.266256e-03
7.271589e-04
4.603262e-05
5.238589e-05
8.182675e-04
1.366894e-03
1.546738e-03
1.398268e-03
1.213516e-03
1.213516e-03
1.398269e-03
1.546739e-03
1.366895e-03
8.182679e-04
5.238592e-05
5.512758e-05
8.489253e-04
1.381910e-03
1.458738e-03
1.213516e-03
9.263558e-04
9.263559e-04
1.213516e-03
1.458738e-03
1.381911e-03
8.489256e-04
5.512761e-05
5.512759e-05
8.489253e-04
1.381910e-03
1.458738e-03
1.213516e-03
9.263557e-04
9.263558e-04
1.213516e-03
1.458738e-03
1.381911e-03
8.489256e-04
5.512761e-05
5.238590e-05
8.182677e-04
1.366895e-03
1.546738e-03
1.398268e-03
1.213516e-03
1.213516e-03
1.398269e-03
1.546739e-03
1.366895e-03
8.182679e-04
5.238592e-05
4.603260e-05
7.271584e-04
1.266256e-03
1.516305e-03
1.546739e-03
1.458738e-03
1.458738e-03
1.546739e-03
1.516305e-03
1.266256e-03
7.271588e-04
4.603261e-05
3.475115e-05
5.561613e-04
9.985580e-04
1.266256e-03
1.366895e-03
1.381911e-03
1.381911e-03
1.366895e-03
1.266256e-03
9.985580e-04
5.561613e-04
3.475116e-05
1.877316e-05
3.030338e-04
5.561613e-04
7.271586e-04
8.182678e-04
8.489254e-04
8.489256e-04
8.182679e-04
7.271590e-04
5.561613e-04
3.030338e-04
1.877316e-05
3.358204e-06
1.877316e-05
3.475116e-05
4.603260e-05
5.238591e-05
5.512761e-05
5.512761e-05
5.238593e-05
4.603262e-05
3.475116e-05
1.877316e-05
3.358204e-06
6.442568e-06
3.579087e-05
6.727692e-05
9.168731e-05
1.069825e-04
1.150543e-04
1.150543e-04
1.069825e-04
9.168735e-05
6.727695e-05
3.579088e-05
6.442568e-06
3.579087e-05
5.813576e-04
1.085181e-03
1.446565e-03
1.653175e-03
1.753249e-03
1.753250e-03
1.653175e-03
1.446566e-03
1.085181e-03
5.813576e-04
3.579088e-05
6.727692e-05
1.085181e-03
1.962581e-03
2.480496e-03
2.700668e-03
2.666321e-03
2.666321e-03
2.700668e-03
2.480497e-03
1.962582e-03
1.085181e-03
6.727695e-05
9.168731e-05
1.446565e-03
2.480496e-03
2.908444e-03
2.777441e-03
2.564532e-03
2.564532e-03
2.777442e-03
2.908445e-03
2.480497e-03
1.446566e-03
9.168736e-05
1.069825e-04
1.653174e-03
2.700667e-03
2.777441e-03
2.528711e-03
0.000000e+00
0.000000e+00
2.528711e-03
2.777442e-03
2.700668e-03
1.653175e-03
1.069826e-04
1.150543e-04
1.753249e-03
2.666321e-03
2.564532e-03
0.000000e+00
0.000000e+00
0.000000e+00
0.000000e+00
2.564532e-03
2.666321e-03
1.753250e-03
1.150543e-04
1.150543e-04
1.753249e-03
2.666320e-03
2.564532e-03
0.000000e+00
0.000000e+00
0.000000e+00
0.000000e+00
2.564532e-03
2.666322e-03
1.753250e-03
1.150544e-04
1.069825e-04
1.653175e-03
2.700668e-03
2.777442e-03
2.528711e-03
0.000000e+00
0.000000e+00
2.528711e-03
2.777442e-03
2.700668e-03
1.653175e-03
1.069826e-04
9.168733e-05
1.446566e-03
2.480497e-03
2.908444e-03
2.777443e-03
2.564532e-03
2.564532e-03
2.777443e-03
2.908445e-03
2.480497e-03
1.446566e-03
9.168735e-05
6.727693e-05
1.085181e-03
1.962580e-03
2.480497e-03
2.700668e-03
2.666321e-03
2.666321e-03
2.700668e-03
2.480497e-03
1.962583e-03
1.085181e-03
6.727695e-05
3.579087e-05
5.813577e-04
1.085181e-03
1.446566e-03
1.653175e-03
1.753250e-03
1.753250e-03
1.653175e-03
1.446566e-03
1.085181e-03
5.813573e-04
3.579088e-05
6.442569e-06
3.579088e-05
6.727695e-05
9.168734e-05
1.069826e-04
1.150543e-04
1.150543e-04
1.069826e-04
9.168736e-05
6.727695e-05
3.579088e-05
6.442570e-06
1.129559e-05
6.163947e-05
1.203154e-04
1.705043e-04
2.140295e-04
2.352560e-04
2.352561e-04
2.140295e-04
1.705043e-04
1.203154e-04
6.163948e-05
1.129559e-05
6.163947e-05
1.019279e-03
1.952099e-03
2.762313e-03
3.297745e-03
3.647326e-03
3.647326e-03
3.297747e-03
2.762314e-03
1.952100e-03
1.019279e-03
6.163947e-05
1.203154e-04
1.952099e-03
3.682667e-03
4.792176e-03
5.235656e-03
5.645262e-03
5.645263e-03
5.235657e-03
4.792177e-03
3.682668e-03
1.952099e-03
1.203154e-04
1.705043e-04
2.762313e-03
4.792176e-03
5.226677e-03
5.048497e-03
0.000000e+00
0.000000e+00
5.048498e-03
5.226678e-03
4.792177e-03
2.762314e-03
1.705043e-04
2.140294e-04
3.297745e-03
5.235656e-03
5.048496e-03
0.000000e+00
0.000000e+00
0.000000e+00
0.000000e+00
5.048498e-03
5.235657e-03
3.297747e-03
2.140295e-04
2.352560e-04
3.647326e-03
5.645260e-03
0.000000e+00
0.000000e+00
0.000000e+00
0.000000e+00
0.000000e+00
0.000000e+00
5.645263e-03
3.647326e-03
2.352561e-04
2.352561e-04
3.647326e-03
5.645263e-03
0.000000e+00
0.000000e+00
0.000000e+00
0.000000e+00
0.000000e+00
0.000000e+00
5.645263e-03
3.647326e-03
2.352561e-04
2.140295e-04
3.297746e-03
5.235657e-03
5.048498e-03
0.000000e+00
0.000000e+00
0.000000e+00
0.000000e+00
5.048498e-03
5.235657e-03
3.297747e-03
2.140295e-04
1.705043e-04
2.762313e-03
4.792176e-03
5.226679e-03
5.048499e-03
0.000000e+00
0.000000e+00
5.048498e-03
5.226679e-03
4.792177e-03
2.762314e-03
1.705043e-04
1.203154e-04
1.952100e-03
3.682668e-03
4.792176e-03
5.235657e-03
5.645263e-03
5.645263e-03
5.235658e-03
4.792177e-03
3.682668e-03
1.952099e-03
1.203154e-04
6.163948e-05
1.019279e-03
1.952099e-03
2.762314e-03
3.297747e-03
3.647326e-03
3.647326e-03
3.297747e-03
2.762314e-03
1.952099e-03
1.019279e-03
6.163948e-05
1.129559e-05
6.163948e-05
1.203154e-04
1.705043e-04
2.140295e-04
2.352561e-04
2.352561e-04
2.140295e-04
1.705044e-04
1.203154e-04
6.163948e-05
1.129559e-05
1.758947e-05
9.553588e-05
1.915254e-04
2.952388e-04
3.851489e-04
4.453672e-04
4.453672e-04
3.851489e-04
2.952388e-04
1.915254e-04
9.553588e-05
1.758947e-05
9.553588e-05
1.587219e-03
3.229431e-03
4.782868e-03
6.586825e-03
7.372357e-03
7.372358e-03
6.586825e-03
4.782868e-03
3.229431e-03
1.587220e-03
9.553588e-05
1.915254e-04
3.229431e-03
6.275951e-03
9.720558e-03
1.108584e-02
1.325094e-02
1.325094e-02
1.108585e-02
9.720559e-03
6.275954e-03
3.229431e-03
1.915254e-04
2.952388e-04
4.782868e-03
9.720557e-03
1.081986e-02
0.000000e+00
0.000000e+00
0.000000e+00
0.000000e+00
1.081986e-02
9.720559e-03
4.782868e-03
2.952388e-04
3.851489e-04
6.586824e-03
1.108584e-02
0.000000e+00
0.000000e+00
0.000000e+00
0.000000e+00
0.000000e+00
0.000000e+00
1.108585e-02
6.586826e-03
3.851489e-04
4.453672e-04
7.372358e-03
1.325094e-02
0.000000e+00
0.000000e+00
0.000000e+00
0.000000e+00
0.000000e+00
0.000000e+00
1.325094e-02
7.372359e-03
4.453672e-04
4.453672e-04
7.372357e-03
1.325094e-02
0.000000e+00
0.000000e+00
0.000000e+00
0.000000e+00
0.000000e+00
0.000000e+00
1.325094e-02
7.372358e-03
4.453672e-04
3.851489e-04
6.586825e-03
1.108584e-02
0.000000e+00
0.000000e+00
0.000000e+00
0.000000e+00
0.000000e+00
0.000000e+00
1.108585e-02
6.586826e-03
3.851489e-04
2.952388e-04
4.782868e-03
9.720559e-03
1.081987e-02
0.000000e+00
0.000000e+00
0.000000e+00
0.000000e+00
1.081987e-02
9.720559e-03
4.782868e-03
2.952388e-04
1.915254e-04
3.229431e-03
6.275955e-03
9.720560e-03
1.108585e-02
1.325094e-02
1.325094e-02
1.108585e-02
9.720560e-03
6.275954e-03
3.229431e-03
1.915254e-04
9.553594e-05
1.587220e-03
3.229431e-03
4.782868e-03
6.586826e-03
7.372359e-03
7.372358e-03
6.586826e-03
4.782868e-03
3.229431e-03
1.587220e-03
9.553594e-05
1.758948e-05
9.553594e-05
1.915254e-04
2.952388e-04
3.851489e-04
4.453672e-04
4.453672e-04
3.851489e-04
2.952388e-04
1.915254e-04
9.553594e-05
1.758947e-05
2.357667e-05
1.251276e-04
2.626783e-04
4.096971e-04
5.639088e-04
6.579957e-04
6.579957e-04
5.639088e-04
4.096971e-04
2.626783e-04
1.251276e-04
2.357667e-05
1.251276e-04
2.127486e-03
4.393364e-03
7.298867e-03
9.986493e-03
1.215596e-02
1.215596e-02
9.986492e-03
7.298868e-03
4.393364e-03
2.127486e-03
1.251276e-04
2.626783e-04
4.393364e-03
9.578159e-03
1.460799e-02
2.760614e-02
2.972298e-02
2.972298e-02
2.760614e-02
1.460799e-02
9.578160e-03
4.393364e-03
2.626783e-04
4.096971e-04
7.298867e-03
1.460799e-02
3.089748e-02
0.000000e+00
0.000000e+00
0.000000e+00
0.000000e+00
3.089748e-02
1.460799e-02
7.298867e-03
4.096971e-04
5.639088e-04
9.986492e-03
2.760614e-02
0.000000e+00
0.000000e+00
0.000000e+00
0.000000e+00
0.000000e+00
0.000000e+00
2.760614e-02
9.986492e-03
5.639088e-04
6.579957e-04
1.215596e-02
2.972298e-02
0.000000e+00
0.000000e+00
0.000000e+00
0.000000e+00
0.000000e+00
0.000000e+00
2.972298e-02
1.215596e-02
6.579957e-04
6.579958e-04
1.215596e-02
2.972298e-02
0.000000e+00
0.000000e+00
0.000000e+00
0.000000e+00
0.000000e+00
0.000000e+00
2.972298e-02
1.215596e-02
6.579957e-04
5.639089e-04
9.986493e-03
2.760614e-02
0.000000e+00
0.000000e+00
0.000000e+00
0.000000e+00
0.000000e+00
0.000000e+00
2.760614e-02
9.986492e-03
5.639089e-04
4.096972e-04
7.298870e-03
1.460799e-02
3.089751e-02
0.000000e+00
0.000000e+00
0.000000e+00
0.000000e+00
3.089750e-02
1.460799e-02
7.298868e-03
4.096971e-04
2.626784e-04
4.393365e-03
9.578164e-03
1.460799e-02
2.760614e-02
2.972298e-02
2.972298e-02
2.760614e-02
1.460799e-02
9.578163e-03
4.393365e-03
2.626784e-04
1.251277e-04
2.127489e-03
4.393365e-03
7.298868e-03
9.986492e-03
1.215596e-02
1.215596e-02
9.986492e-03
7.298868e-03
4.393365e-03
2.127489e-03
1.251277e-04
2.357670e-05
1.251277e-04
2.626784e-04
4.096972e-04
5.639089e-04
6.579957e-04
6.579958e-04
5.639089e-04
4.096971e-04
2.626784e-04
1.251277e-04
2.357670e-05
2.550868e-05
1.357703e-04
2.795386e-04
4.424734e-04
5.951405e-04
7.024552e-04
7.024553e-04
5.951404e-04
4.424734e-04
2.795386e-04
1.357703e-04
2.550868e-05
1.357703e-04
2.301825e-03
4.834335e-03
7.484913e-03
1.072070e-02
1.266956e-02
1.266956e-02
1.072070e-02
7.484912e-03
4.834335e-03
2.301825e-03
1.357703e-04
2.795386e-04
4.834334e-03
1.043288e-02
1.719190e-02
2.170144e-02
3.174114e-02
3.174114e-02
2.170144e-02
1.719190e-02
1.043288e-02
4.834334e-03
2.795386e-04
4.424734e-04
7.484913e-03
1.719189e-02
3.187416e-02
3.843984e-02
0.000000e+00
0.000000e+00
3.843984e-02
3.187417e-02
1.719190e-02
7.484912e-03
4.424735e-04
5.951406e-04
1.072070e-02
2.170144e-02
3.843984e-02
0.000000e+00
0.000000e+00
0.000000e+00
0.000000e+00
3.843984e-02
2.170144e-02
1.072070e-02
5.951405e-04
7.024552e-04
1.266956e-02
3.174114e-02
0.000000e+00
0.000000e+00
0.000000e+00
0.000000e+00
0.000000e+00
0.000000e+00
3.174114e-02
1.266956e-02
7.024552e-04
7.024552e-04
1.266956e-02
3.174115e-02
0.000000e+00
0.000000e+00
0.000000e+00
0.000000e+00
0.000000e+00
0.000000e+00
3.174114e-02
1.266956e-02
7.024553e-04
5.951406e-04
1.072070e-02
2.170145e-02
3.843984e-02
0.000000e+00
0.000000e+00
0.000000e+00
0.000000e+00
3.843983e-02
2.170144e-02
1.072070e-02
5.951405e-04
4.424736e-04
7.484917e-03
1.719191e-02
3.187418e-02
3.843984e-02
0.000000e+00
0.000000e+00
3.843984e-02
3.187418e-02
1.719190e-02
7.484916e-03
4.424735e-04
2.795387e-04
4.834338e-03
1.043288e-02
1.719190e-02
2.170144e-02
3.174114e-02
3.174114e-02
2.170144e-02
1.719190e-02
1.043288e-02
4.834337e-03
2.795387e-04
1.357704e-04
2.301826e-03
4.834337e-03
7.484916e-03
1.072070e-02
1.266956e-02
1.266956e-02
1.072070e-02
7.484916e-03
4.834338e-03
2.301826e-03
1.357704e-04
2.550870e-05
1.357704e-04
2.795387e-04
4.424736e-04
5.951405e-04
7.024553e-04
7.024553e-04
5.951405e-04
4.424736e-04
2.795387e-04
1.357704e-04
2.550870e-05
2.254507e-05
1.202034e-04
2.469061e-04
3.740176e-04
4.959429e-04
5.702804e-04
5.702804e-04
4.959430e-04
3.740176e-04
2.469061e-04
1.202033e-04
2.254507e-05
1.202034e-04
2.034398e-03
4.207810e-03
6.488261e-03
8.401303e-03
9.923697e-03
9.923698e-03
8.401304e-03
6.488261e-03
4.207810e-03
2.034398e-03
1.202034e-04
2.469061e-04
4.207811e-03
8.865952e-03
1.415531e-02
1.869485e-02
2.055417e-02
2.055416e-02
1.869485e-02
1.415531e-02
8.865953e-03
4.207810e-03
2.469061e-04
3.740176e-04
6.488261e-03
1.415531e-02
2.265976e-02
3.297748e-02
3.592968e-02
3.592968e-02
3.297749e-02
2.265975e-02
1.415531e-02
6.488262e-03
3.740176e-04
4.959430e-04
8.401304e-03
1.869485e-02
3.297748e-02
3.939890e-02
0.000000e+00
0.000000e+00
3.939890e-02
3.297749e-02
1.869485e-02
8.401304e-03
4.959430e-04
5.702805e-04
9.923698e-03
2.055417e-02
3.592968e-02
0.000000e+00
0.000000e+00
0.000000e+00
0.000000e+00
3.592968e-02
2.055417e-02
9.923698e-03
5.702804e-04
5.702805e-04
9.923698e-03
2.055417e-02
3.592968e-02
0.000000e+00
0.000000e+00
0.000000e+00
0.000000e+00
3.592968e-02
2.055417e-02
9.923699e-03
5.702805e-04
4.959431e-04
8.401305e-03
1.869485e-02
3.297749e-02
3.939890e-02
0.000000e+00
0.000000e+00
3.939890e-02
3.297748e-02
1.869485e-02
8.401304e-03
4.959430e-04
3.740177e-04
6.488262e-03
1.415531e-02
2.265976e-02
3.297749e-02
3.592968e-02
3.592968e-02
3.297749e-02
2.265975e-02
1.415531e-02
6.488261e-03
3.740176e-04
2.469062e-04
4.207811e-03
8.865954e-03
1.415531e-02
1.869485e-02
2.055417e-02
2.055416e-02
1.869485e-02
1.415531e-02
8.865953e-03
4.207811e-03
2.469062e-04
1.202034e-04
2.034399e-03
4.207811e-03
6.488262e-03
8.401304e-03
9.923698e-03
9.923697e-03
8.401304e-03
6.488262e-03
4.207811e-03
2.034399e-03
1.202034e-04
2.254509e-05
1.202034e-04
2.469062e-04
3.740177e-04
4.959431e-04
5.702805e-04
5.702805e-04
4.959430e-04
3.740176e-04
2.469062e-04
1.202034e-04
2.254509e-05
1.618040e-05
8.667338e-05
1.757892e-04
2.635028e-04
3.354439e-04
3.807521e-04
3.807521e-04
3.354439e-04
2.635028e-04
1.757892e-04
8.667339e-05
1.618040e-05
8.667339e-05
1.460069e-03
2.972305e-03
4.480373e-03
5.738460e-03
6.431553e-03
6.431553e-03
5.738461e-03
4.480373e-03
2.972304e-03
1.460069e-03
8.667339e-05
1.757892e-04
2.972304e-03
6.135303e-03
9.340723e-03
1.215955e-02
1.354852e-02
1.354852e-02
1.215955e-02
9.340723e-03
6.135302e-03
2.972304e-03
1.757892e-04
2.635028e-04
4.480374e-03
9.340723e-03
1.468429e-02
1.919891e-02
2.097841e-02
2.097841e-02
1.919891e-02
1.468429e-02
9.340725e-03
4.480373e-03
2.635028e-04
3.354439e-04
5.738461e-03
1.215955e-02
1.919891e-02
2.359658e-02
3.306676e-02
3.306676e-02
2.359658e-02
1.919891e-02
1.215955e-02
5.738460e-03
3.354439e-04
3.807521e-04
6.431554e-03
1.354852e-02
2.097842e-02
3.306676e-02
3.617301e-02
3.617301e-02
3.306676e-02
2.097841e-02
1.354852e-02
6.431554e-03
3.807521e-04
3.807521e-04
6.431554e-03
1.354852e-02
2.097841e-02
3.306676e-02
3.617301e-02
3.617302e-02
3.306676e-02
2.097841e-02
1.354852e-02
6.431553e-03
3.807520e-04
3.354439e-04
5.738461e-03
1.215955e-02
1.919892e-02
2.359658e-02
3.306676e-02
3.306676e-02
2.359658e-02
1.919891e-02
1.215955e-02
5.738460e-03
3.354439e-04
2.635028e-04
4.480374e-03
9.340725e-03
1.468429e-02
1.919892e-02
2.097841e-02
2.097841e-02
1.919891e-02
1.468429e-02
9.340724e-03
4.480373e-03
2.635028e-04
1.757892e-04
2.972305e-03
6.135303e-03
9.340725e-03
1.215955e-02
1.354852e-02
1.354852e-02
1.215955e-02
9.340724e-03
6.135302e-03
2.972304e-03
1.757892e-04
8.667340e-05
1.460069e-03
2.972305e-03
4.480373e-03
5.738460e-03
6.431553e-03
6.431553e-03
5.738460e-03
4.480373e-03
2.972305e-03
1.460069e-03
8.667340e-05
1.618040e-05
8.667340e-05
1.757892e-04
2.635028e-04
3.354439e-04
3.807521e-04
3.807520e-04
3.354439e-04
2.635028e-04
1.757893e-04
8.667340e-05
1.618040e-05
8.306876e-06
4.467235e-05
8.977634e-05
1.330209e-04
1.680793e-04
1.875283e-04
1.875283e-04
1.680793e-04
1.330209e-04
8.977633e-05
4.467234e-05
8.306873e-06
4.467235e-05
7.495866e-04
1.510949e-03
2.242441e-03
2.840778e-03
3.168586e-03
3.168585e-03
2.840778e-03
2.242441e-03
1.510949e-03
7.495864e-04
4.467234e-05
8.977634e-05
1.510949e-03
3.063108e-03
4.592298e-03
5.855542e-03
6.544270e-03
6.544269e-03
5.855543e-03
4.592297e-03
3.063107e-03
1.510949e-03
8.977633e-05
1.330209e-04
2.242440e-03
4.592298e-03
6.967213e-03
8.897763e-03
1.038775e-02
1.038775e-02
8.897762e-03
6.967212e-03
4.592297e-03
2.242441e-03
1.330209e-04
1.680793e-04
2.840779e-03
5.855544e-03
8.897763e-03
1.218591e-02
1.417686e-02
1.417686e-02
1.218591e-02
8.897762e-03
5.855542e-03
2.840778e-03
1.680793e-04
1.875283e-04
3.168586e-03
6.544271e-03
1.038775e-02
1.417686e-02
1.666072e-02
1.666072e-02
1.417686e-02
1.038775e-02
6.544269e-03
3.168585e-03
1.875283e-04
1.875283e-04
3.168586e-03
6.544270e-03
1.038775e-02
1.417686e-02
1.666072e-02
1.666072e-02
1.417686e-02
1.038775e-02
6.544269e-03
3.168585e-03
1.875283e-04
1.680793e-04
2.840779e-03
5.855543e-03
8.897763e-03
1.218591e-02
1.417686e-02
1.417686e-02
1.218591e-02
8.897762e-03
5.855542e-03
2.840778e-03
1.680793e-04
1.330209e-04
2.242440e-03
4.592298e-03
6.967213e-03
8.897763e-03
1.038775e-02
1.038775e-02
8.897763e-03
6.967212e-03
4.592297e-03
2.242441e-03
1.330209e-04
8.977634e-05
1.510950e-03
3.063108e-03
4.592298e-03
5.855542e-03
6.544270e-03
6.544269e-03
5.855543e-03
4.592298e-03
3.063107e-03
1.510949e-03
8.977634e-05
4.467235e-05
7.495866e-04
1.510950e-03
2.242440e-03
2.840778e-03
3.168585e-03
3.168585e-03
2.840778e-03
2.242441e-03
1.510949e-03
7.495865e-04
4.467235e-05
8.306876e-06
4.467235e-05
8.977634e-05
1.330209e-04
1.680793e-04
1.875283e-04
1.875283e-04
1.680793e-04
1.330209e-04
8.977634e-05
4.467235e-05
8.306874e-06
0.000000e+00
8.306876e-06
1.674426e-05
2.485061e-05
3.148133e-05
3.511408e-05
3.511408e-05
3.148134e-05
2.485061e-05
1.674426e-05
8.306873e-06
0.000000e+00
8.306876e-06
4.540843e-05
9.106008e-05
1.345545e-04
1.695683e-04
1.888058e-04
1.888058e-04
1.695683e-04
1.345545e-04
9.106007e-05
4.540843e-05
8.306873e-06
1.674426e-05
9.106008e-05
1.835568e-04
2.728684e-04
3.452701e-04
3.902079e-04
3.902078e-04
3.452701e-04
2.728684e-04
1.835568e-04
9.106007e-05
1.674426e-05
2.485060e-05
1.345545e-04
2.728684e-04
4.081839e-04
5.317088e-04
6.061506e-04
6.061506e-04
5.317088e-04
4.081838e-04
2.728684e-04
1.345545e-04
2.485061e-05
3.148135e-05
1.695683e-04
3.452701e-04
5.317088e-04
7.024037e-04
8.140833e-04
8.140833e-04
7.024036e-04
5.317088e-04
3.452700e-04
1.695682e-04
3.148133e-05
3.511408e-05
1.888058e-04
3.902079e-04
6.061506e-04
8.140833e-04
9.445910e-04
9.445911e-04
8.140833e-04
6.061505e-04
3.902078e-04
1.888058e-04
3.511408e-05
3.511408e-05
1.888058e-04
3.902079e-04
6.061506e-04
8.140833e-04
9.445910e-04
9.445910e-04
8.140833e-04
6.061505e-04
3.902078e-04
1.888057e-04
3.511408e-05
3.148135e-05
1.695683e-04
3.452701e-04
5.317088e-04
7.024037e-04
8.140833e-04
8.140833e-04
7.024036e-04
5.317088e-04
3.452700e-04
1.695682e-04
3.148133e-05
2.485060e-05
1.345545e-04
2.728685e-04
4.081839e-04
5.317088e-04
6.061505e-04
6.061505e-04
5.317088e-04
4.081839e-04
2.728684e-04
1.345545e-04
2.485061e-05
1.674426e-05
9.106007e-05
1.835568e-04
2.728684e-04
3.452701e-04
3.902079e-04
3.902079e-04
3.452701e-04
2.728684e-04
1.835568e-04
9.106007e-05
1.674426e-05
8.306876e-06
4.540844e-05
9.106008e-05
1.345545e-04
1.695683e-04
1.888058e-04
1.888057e-04
1.695683e-04
1.345545e-04
9.106007e-05
4.540843e-05
8.306874e-06
0.000000e+00
8.306876e-06
1.674426e-05
2.485061e-05
3.148133e-05
3.511408e-05
3.511407e-05
3.148133e-05
2.485061e-05
1.674426e-05
8.306874e-06
0.000000e+00
