# vtk DataFile Version 2.0
test
ASCII
DATASET STRUCTURED_POINTS
DIMENSIONS 40 40 40
ORIGIN 0 0 0
SPACING 1.000000 1.000000 1.000000
POINT_DATA 64000
SCALARS OutArray floats 3
LOOKUP_TABLE default
0.000000 0.000000 0.001000 0.000000 0.000000 0.001000 0.000000 0.000000 0.001000 0.000000 0.000000 0.001000 0.000000 0.000000 0.001000 0.000000 0.000000 0.001000 0.000000 0.000000 0.001000 0.000000 0.000000 0.001000 0.000000 0.000000 0.001000 0.000000 0.000000 0.001000 0.000000 0.000000 0.001000 0.000000 0.000000 0.001000 0.000000 0.000000 0.001000 0.000000 0.000000 0.001000 0.000000 0.000000 0.001000 0.000000 0.000000 0.001000 0.000000 0.000000 0.001000 0.000000 0.000000 0.001000 0.000000 0.000000 0.001000 0.000000 0.000000 0.001000 0.000000 0.000000 0.001000 0.000000 0.000000 0.001000 0.000000 0.000000 0.001000 0.000000 0.000000 0.001000 0.000000 0.000000 0.001000 0.000000 0.000000 0.001000 0.000000 0.000000 0.001000 0.000000 0.000000 0.001000 0.000000 0.000000 0.001000 0.000000 0.000000 0.001000 0.000000 0.000000 0.001000 0.000000 0.000000 0.001000 0.000000 0.000000 0.001000 0.000000 0.000000 0.001000 0.000000 0.000000 0.001000 0.000000 0.000000 0.001000 0.000000 0.000000 0.001000 0.000000 0.000000 0.001000 0.000000 0.000000 0.001000 0.000000 0.000000 0.001000 0.000000 0.000000 0.001000 0.000000 0.000000 0.001000 0.000000 0.000000 0.001000 0.000000 0.000000 0.001000 0.000000 0.000000 0.001000 0.000000 0.000000 0.001000 0.000000 0.000000 0.001000 0.000000 0.000000 0.001000 0.000000 0.000000 0.001000 0.000000 0.000000 0.001000 0.000000 0.000000 0.001000 0.000000 0.000000 0.001000 0.000000 0.000000 0.001000 0.000000 0.000000 0.001000 0.000000 0.000000 0.001000 0.000000 0.000000 0.001000 0.000000 0.000000 0.001000 0.000000 0.000000 0.001000 0.000000 0.000000 0.001000 0.000000 0.000000 0.001000 0.000000 0.000000 0.001000 0.000000 0.000000 0.001000 0.000000 0.000000 0.001000 0.000000 0.000000 0.001000 0.000000 0.000000 0.001000 0.000000 0.000000 0.001000 0.000000 0.000000 0.001000 0.000000 0.000000 0.001000 0.000000 0.000000 0.001000 0.000000 0.000000 0.001000 0.000000 0.000000 0.001000 0.000000 0.000000 0.001000 0.000000 0.000000 0.001000 0.000000 0.000000 0.001000 0.000000 0.000000 0.001000 0.000000 0.000000 0.001000 0.000000 0.000000 0.001000 0.000000 0.000000 0.001000 0.000000 0.000000 0.001000 0.000000 0.000000 0.001000 0.000000 0.000000 0.001000 0.000000 0.000000 0.001000 0.000000 0.000000 0.001000 0.000000 0.000000 0.001000 0.000000 0.000000 0.001000 0.000000 0.000000 0.001000 0.000000 0.000000 0.001000 0.000000 0.000000 0.001000 0.000000 0.000000 0.001000 0.000000 0.000000 0.001000 0.000000 0.000000 0.001000 0.000000 0.000000 0.001000 0.000000 0.000000 0.001000 0.000000 0.000000 0.001000 0.000000 0.000000 0.001000 0.000000 0.000000 0.001000 0.000000 0.000000 0.001000 0.000000 0.000000 0.001000 0.000000 0.000000 0.001000 0.000000 0.000000 0.001000 0.000000 0.000000 0.001000 0.000000 0.000000 0.001000 0.000000 0.000000 0.001000 0.000000 0.000000 0.001000 0.000000 0.000000 0.001000 0.000000 0.000000 0.001000 0.000000 0.000000 0.001000 0.000000 0.000000 0.001000 0.000000 0.000000 0.001000 0.000000 0.000000 0.001000 0.000000 0.000000 0.001000 0.000000 0.000000 0.001000 0.000000 0.000000 0.001000 0.000000 0.000000 0.001000 0.000000 0.000000 0.001000 0.000000 0.000000 0.001000 0.000000 0.000000 0.001000 0.000000 0.000000 0.001000 0.000000 0.000000 0.001000 0.000000 0.000000 0.001000 0.000000 0.000000 0.001000 0.000000 0.000000 0.001000 0.000000 0.000000 0.001000 0.000000 0.000000 0.001000 0.000000 0.000000 0.001000 0.000000 0.000000 0.001000 0.000000 0.000000 0.001000 0.000000 0.000000 0.001000 0.000000 0.000000 0.001000 0.000000 0.000000 0.001000 0.000000 0.000000 0.001000 0.000000 0.000000 0.001000 0.000000 0.000000 0.001000 0.000000 0.000000 0.001000 0.000000 0.000000 0.001000 0.000000 0.000000 0.001000 0.000000 0.000000 0.001000 0.000000 0.000000 0.001000 0.000000 0.000000 0.001000 0.000000 0.000000 0.001000 0.000000 0.000000 0.001000 0.000000 0.000000 0.001000 0.000000 0.000000 0.001000 0.000000 0.000000 0.001000 0.000000 0.000000 0.001000 0.000000 0.000000 0.001000 0.000000 0.000000 0.001000 0.000000 0.000000 0.001000 0.000000 0.000000 0.001000 0.000000 0.000000 0.001000 0.000000 0.000000 0.001000 0.000000 0.000000 0.001000 0.000000 0.000000 0.001000 0.000000 0.000000 0.001000 0.000000 0.000000 0.001000 0.000000 0.000000 0.001000 0.000000 0.000000 0.001000 0.000000 0.000000 0.001000 0.000000 0.000000 0.001000 0.000000 0.000000 0.001000 0.000000 0.000000 0.001000 0.000000 0.000000 0.001000 0.000000 0.000000 0.001000 0.000000 0.000000 0.001000 0.000000 0.000000 0.001000 0.000000 0.000000 0.001000 0.000000 0.000000 0.001000 0.000000 0.000000 0.001000 0.000000 0.000000 0.001000 0.000000 0.000000 0.001000 0.000000 0.000000 0.001000 0.000000 0.000000 0.001000 0.000000 0.000000 0.001000 0.000000 0.000000 0.001000 0.000000 0.000000 0.001000 0.000000 0.000000 0.001000 0.000000 0.000000 0.001000 0.000000 0.000000 0.001000 0.000000 0.000000 0.001000 0.000000 0.000000 0.001000 0.000000 0.000000 0.001000 0.000000 0.000000 0.001000 0.000000 0.000000 0.001000 0.000000 0.000000 0.001000 0.000000 0.000000 0.001000 0.000000 0.000000 0.001000 0.000000 0.000000 0.001000 0.000000 0.000000 0.001000 0.000000 0.000000 0.001000 0.000000 0.000000 0.001000 0.000000 0.000000 0.001000 0.000000 0.000000 0.001000 0.000000 0.000000 0.001000 0.000000 0.000000 0.001000 0.000000 0.000000 0.001000 0.000000 0.000000 0.001000 0.000000 0.000000 0.001000 0.000000 0.000000 0.001000 0.000000 0.000000 0.001000 0.000000 0.000000 0.001000 0.000000 0.000000 0.001000 0.000000 0.000000 0.001000 0.000000 0.000000 0.001000 0.000000 0.000000 0.001000 0.000000 0.000000 0.001000 0.000000 0.000000 0.001000 0.000000 0.000000 0.001000 0.000000 0.000000 0.001000 0.000000 0.000000 0.001000 0.000000 0.000000 0.001000 0.000000 0.000000 0.001000 0.000000 0.000000 0.001000 0.000000 0.000000 0.001000 0.000000 0.000000 0.001000 0.000000 0.000000 0.001000 0.000000 0.000000 0.001000 0.000000 0.000000 0.001000 0.000000 0.000000 0.001000 0.000000 0.000000 0.001000 0.000000 0.000000 0.001000 0.000000 0.000000 0.001000 0.000000 0.000000 0.001000 0.000000 0.000000 0.001000 0.000000 0.000000 0.001000 0.000000 0.000000 0.001000 0.000000 0.000000 0.001000 0.000000 0.000000 0.001000 0.000000 0.000000 0.001000 0.000000 0.000000 0.001000 0.000000 0.000000 0.001000 0.000000 0.000000 0.001000 0.000000 0.000000 0.001000 0.000000 0.000000 0.001000 0.000000 0.000000 0.001000 0.000000 0.000000 0.001000 0.000000 0.000000 0.001000 0.000000 0.000000 0.001000 0.000000 0.000000 0.001000 0.000000 0.000000 0.001000 0.000000 0.000000 0.001000 0.000000 0.000000 0.001000 0.000000 0.000000 0.001000 0.000000 0.000000 0.001000 0.000000 0.000000 0.001000 0.000000 0.000000 0.001000 0.000000 0.000000 0.001000 0.000000 0.000000 0.001000 0.000000 0.000000 0.001000 0.000000 0.000000 0.001000 0.000000 0.000000 0.001000 0.000000 0.000000 0.001000 0.000000 0.000000 0.001000 0.000000 0.000000 0.001000 0.000000 0.000000 0.001000 0.000000 0.000000 0.001000 0.000000 0.000000 0.001000 0.000000 0.000000 0.001000 0.000000 0.000000 0.001000 0.000000 0.000000 0.001000 0.000000 0.000000 0.001000 0.000000 0.000000 0.001000 0.000000 0.000000 0.001000 0.000000 0.000000 0.001000 0.000000 0.000000 0.001000 0.000000 0.000000 0.001000 0.000000 0.000000 0.001000 0.000000 0.000000 0.001000 0.000000 0.000000 0.001000 0.000000 0.000000 0.001000 0.000000 0.000000 0.001000 0.000000 0.000000 0.001000 0.000000 0.000000 0.001000 0.000000 0.000000 0.001000 0.000000 0.000000 0.001000 0.000000 0.000000 0.001000 0.000000 0.000000 0.001000 0.000000 0.000000 0.001000 0.000000 0.000000 0.001000 0.000000 0.000000 0.001000 0.000000 0.000000 0.001000 0.000000 0.000000 0.001000 0.000000 0.000000 0.001000 0.000000 0.000000 0.001000 0.000000 0.000000 0.001000 0.000000 0.000000 0.001000 0.000000 0.000000 0.001000 0.000000 0.000000 0.001000 0.000000 0.000000 0.001000 0.000000 0.000000 0.001000 0.000000 0.000000 0.001000 0.000000 0.000000 0.001000 0.000000 0.000000 0.001000 0.000000 0.000000 0.001000 0.000000 0.000000 0.001000 0.000000 0.000000 0.001000 0.000000 0.000000 0.001000 0.000000 0.000000 0.001000 0.000000 0.000000 0.001000 0.000000 0.000000 0.001000 0.000000 0.000000 0.001000 0.000000 0.000000 0.001000 0.000000 0.000000 0.001000 0.000000 0.000000 0.001000 0.000000 0.000000 0.001000 0.000000 0.000000 0.001000 0.000000 0.000000 0.001000 0.000000 0.000000 0.001000 0.000000 0.000000 0.001000 0.000000 0.000000 0.001000 0.000000 0.000000 0.001000 0.000000 0.000000 0.001000 0.000000 0.000000 0.001000 0.000000 0.000000 0.001000 0.000000 0.000000 0.001000 0.000000 0.000000 0.001000 0.000000 0.000000 0.001000 0.000000 0.000000 0.001000 0.000000 0.000000 0.001000 0.000000 0.000000 0.001000 0.000000 0.000000 0.001000 0.000000 0.000000 0.001000 0.000000 0.000000 0.001000 0.000000 0.000000 0.001000 0.000000 0.000000 0.001000 0.000000 0.000000 0.001000 0.000000 0.000000 0.001000 0.000000 0.000000 0.001000 0.000000 0.000000 0.001000 0.000000 0.000000 0.001000 0.000000 0.000000 0.001000 0.000000 0.000000 0.001000 0.000000 0.000000 0.001000 0.000000 0.000000 0.001000 0.000000 0.000000 0.001000 0.000000 0.000000 0.001000 0.000000 0.000000 0.001000 0.000000 0.000000 0.001000 0.000000 0.000000 0.001000 0.000000 0.000000 0.001000 0.000000 0.000000 0.001000 0.000000 0.000000 0.001000 0.000000 0.000000 0.001000 0.000000 0.000000 0.001000 0.000000 0.000000 0.001000 0.000000 0.000000 0.001000 0.000000 0.000000 0.001000 0.000000 0.000000 0.001000 0.000000 0.000000 0.001000 0.000000 0.000000 0.001000 0.000000 0.000000 0.001000 0.000000 0.000000 0.001000 0.000000 0.000000 0.001000 0.000000 0.000000 0.001000 0.000000 0.000000 0.001000 0.000000 0.000000 0.001000 0.000000 0.000000 0.001000 0.000000 0.000000 0.001000 0.000000 0.000000 0.001000 0.000000 0.000000 0.001000 0.000000 0.000000 0.001000 0.000000 0.000000 0.001000 0.000000 0.000000 0.001000 0.000000 0.000000 0.001000 0.000000 0.000000 0.001000 0.000000 0.000000 0.001000 0.000000 0.000000 0.001000 0.000000 0.000000 0.001000 0.000000 0.000000 0.001000 0.000000 0.000000 0.001000 0.000000 0.000000 0.001000 0.000000 0.000000 0.001000 0.000000 0.000000 0.001000 0.000000 0.000000 0.001000 0.000000 0.000000 0.001000 0.000000 0.000000 0.001000 0.000000 0.000000 0.001000 0.000000 0.000000 0.001000 0.000000 0.000000 0.001000 0.000000 0.000000 0.001000 0.000000 0.000000 0.001000 0.000000 0.000000 0.001000 0.000000 0.000000 0.001000 0.000000 0.000000 0.001000 0.000000 0.000000 0.001000 0.000000 0.000000 0.001000 0.000000 0.000000 0.001000 0.000000 0.000000 0.001000 0.000000 0.000000 0.001000 0.000000 0.000000 0.001000 0.000000 0.000000 0.001000 0.000000 0.000000 0.001000 0.000000 0.000000 0.001000 0.000000 0.000000 0.001000 0.000000 0.000000 0.001000 0.000000 0.000000 0.001000 0.000000 0.000000 0.001000 0.000000 0.000000 0.001000 0.000000 0.000000 0.001000 0.000000 0.000000 0.001000 0.000000 0.000000 0.001000 0.000000 0.000000 0.001000 0.000000 0.000000 0.001000 0.000000 0.000000 0.001000 0.000000 0.000000 0.001000 0.000000 0.000000 0.001000 0.000000 0.000000 0.001000 0.000000 0.000000 0.001000 0.000000 0.000000 0.001000 0.000000 0.000000 0.001000 0.000000 0.000000 0.001000 0.000000 0.000000 0.001000 0.000000 0.000000 0.001000 0.000000 0.000000 0.001000 0.000000 0.000000 0.001000 0.000000 0.000000 0.001000 0.000000 0.000000 0.001000 0.000000 0.000000 0.001000 0.000000 0.000000 0.001000 0.000000 0.000000 0.001000 0.000000 0.000000 0.001000 0.000000 0.000000 0.001000 0.000000 0.000000 0.001000 0.000000 0.000000 0.001000 0.000000 0.000000 0.001000 0.000000 0.000000 0.001000 0.000000 0.000000 0.001000 0.000000 0.000000 0.001000 0.000000 0.000000 0.001000 0.000000 0.000000 0.001000 0.000000 0.000000 0.001000 0.000000 0.000000 0.001000 0.000000 0.000000 0.001000 0.000000 0.000000 0.001000 0.000000 0.000000 0.001000 0.000000 0.000000 0.001000 0.000000 0.000000 0.001000 0.000000 0.000000 0.001000 0.000000 0.000000 0.001000 0.000000 0.000000 0.001000 0.000000 0.000000 0.001000 0.000000 0.000000 0.001000 0.000000 0.000000 0.001000 0.000000 0.000000 0.001000 0.000000 0.000000 0.001000 0.000000 0.000000 0.001000 0.000000 0.000000 0.001000 0.000000 0.000000 0.001000 0.000000 0.000000 0.001000 0.000000 0.000000 0.001000 0.000000 0.000000 0.001000 0.000000 0.000000 0.001000 0.000000 0.000000 0.001000 0.000000 0.000000 0.001000 0.000000 0.000000 0.001000 0.000000 0.000000 0.001000 0.000000 0.000000 0.001000 0.000000 0.000000 0.001000 0.000000 0.000000 0.001000 0.000000 0.000000 0.001000 0.000000 0.000000 0.001000 0.000000 0.000000 0.001000 0.000000 0.000000 0.001000 0.000000 0.000000 0.001000 0.000000 0.000000 0.001000 0.000000 0.000000 0.001000 0.000000 0.000000 0.001000 0.000000 0.000000 0.001000 0.000000 0.000000 0.001000 0.000000 0.000000 0.001000 0.000000 0.000000 0.001000 0.000000 0.000000 0.001000 0.000000 0.000000 0.001000 0.000000 0.000000 0.001000 0.000000 0.000000 0.001000 0.000000 0.000000 0.001000 0.000000 0.000000 0.001000 0.000000 0.000000 0.001000 0.000000 0.000000 0.001000 0.000000 0.000000 0.001000 0.000000 0.000000 0.001000 0.000000 0.000000 0.001000 0.000000 0.000000 0.001000 0.000000 0.000000 0.001000 0.000000 0.000000 0.001000 0.000000 0.000000 0.001000 0.000000 0.000000 0.001000 0.000000 0.000000 0.001000 0.000000 0.000000 0.001000 0.000000 0.000000 0.001000 0.000000 0.000000 0.001000 0.000000 0.000000 0.001000 0.000000 0.000000 0.001000 0.000000 0.000000 0.001000 0.000000 0.000000 0.001000 0.000000 0.000000 0.001000 0.000000 0.000000 0.001000 0.000000 0.000000 0.001000 0.000000 0.000000 0.001000 0.000000 0.000000 0.001000 0.000000 0.000000 0.001000 0.000000 0.000000 0.001000 0.000000 0.000000 0.001000 0.000000 0.000000 0.001000 0.000000 0.000000 0.001000 0.000000 0.000000 0.001000 0.000000 0.000000 0.001000 0.000000 0.000000 0.001000 0.000000 0.000000 0.001000 0.000000 0.000000 0.001000 0.000000 0.000000 0.001000 0.000000 0.000000 0.001000 0.000000 0.000000 0.001000 0.000000 0.000000 0.001000 0.000000 0.000000 0.001000 0.000000 0.000000 0.001000 0.000000 0.000000 0.001000 0.000000 0.000000 0.001000 0.000000 0.000000 0.001000 0.000000 0.000000 0.001000 0.000000 0.000000 0.001000 0.000000 0.000000 0.001000 0.000000 0.000000 0.001000 0.000000 0.000000 0.001000 0.000000 0.000000 0.001000 0.000000 0.000000 0.001000 0.000000 0.000000 0.001000 0.000000 0.000000 0.001000 0.000000 0.000000 0.001000 0.000000 0.000000 0.001000 0.000000 0.000000 0.001000 0.000000 0.000000 0.001000 0.000000 0.000000 0.001000 0.000000 0.000000 0.001000 0.000000 0.000000 0.001000 0.000000 0.000000 0.001000 0.000000 0.000000 0.001000 0.000000 0.000000 0.001000 0.000000 0.000000 0.001000 0.000000 0.000000 0.001000 0.000000 0.000000 0.001000 0.000000 0.000000 0.001000 0.000000 0.000000 0.001000 0.000000 0.000000 0.001000 0.000000 0.000000 0.001000 0.000000 0.000000 0.001000 0.000000 0.000000 0.001000 0.000000 0.000000 0.001000 0.000000 0.000000 0.001000 0.000000 0.000000 0.001000 0.000000 0.000000 0.001000 0.000000 0.000000 0.001000 0.000000 0.000000 0.001000 0.000000 0.000000 0.001000 0.000000 0.000000 0.001000 0.000000 0.000000 0.001000 0.000000 0.000000 0.001000 0.000000 0.000000 0.001000 0.000000 0.000000 0.001000 0.000000 0.000000 0.001000 0.000000 0.000000 0.001000 0.000000 0.000000 0.001000 0.000000 0.000000 0.001000 0.000000 0.000000 0.001000 0.000000 0.000000 0.001000 0.000000 0.000000 0.001000 0.000000 0.000000 0.001000 0.000000 0.000000 0.001000 0.000000 0.000000 0.001000 0.000000 0.000000 0.001000 0.000000 0.000000 0.001000 0.000000 0.000000 0.001000 0.000000 0.000000 0.001000 0.000000 0.000000 0.001000 0.000000 0.000000 0.001000 0.000000 0.000000 0.001000 0.000000 0.000000 0.001000 0.000000 0.000000 0.001000 0.000000 0.000000 0.001000 0.000000 0.000000 0.001000 0.000000 0.000000 0.001000 0.000000 0.000000 0.001000 0.000000 0.000000 0.001000 0.000000 0.000000 0.001000 0.000000 0.000000 0.001000 0.000000 0.000000 0.001000 0.000000 0.000000 0.001000 0.000000 0.000000 0.001000 0.000000 0.000000 0.001000 0.000000 0.000000 0.001000 0.000000 0.000000 0.001000 0.000000 0.000000 0.001000 0.000000 0.000000 0.001000 0.000000 0.000000 0.001000 0.000000 0.000000 0.001000 0.000000 0.000000 0.001000 0.000000 0.000000 0.001000 0.000000 0.000000 0.001000 0.000000 0.000000 0.001000 0.000000 0.000000 0.001000 0.000000 0.000000 0.001000 0.000000 0.000000 0.001000 0.000000 0.000000 0.001000 0.000000 0.000000 0.001000 0.000000 0.000000 0.001000 0.000000 0.000000 0.001000 0.000000 0.000000 0.001000 0.000000 0.000000 0.001000 0.000000 0.000000 0.001000 0.000000 0.000000 0.001000 0.000000 0.000000 0.001000 0.000000 0.000000 0.001000 0.000000 0.000000 0.001000 0.000000 0.000000 0.001000 0.000000 0.000000 0.001000 0.000000 0.000000 0.001000 0.000000 0.000000 0.001000 0.000000 0.000000 0.001000 0.000000 0.000000 0.001000 0.000000 0.000000 0.001000 0.000000 0.000000 0.001000 0.000000 0.000000 0.001000 0.000000 0.000000 0.001000 0.000000 0.000000 0.001000 0.000000 0.000000 0.001000 0.000000 0.000000 0.001000 0.000000 0.000000 0.001000 0.000000 0.000000 0.001000 0.000000 0.000000 0.001000 0.000000 0.000000 0.001000 0.000000 0.000000 0.001000 0.000000 0.000000 0.001000 0.000000 0.000000 0.001000 0.000000 0.000000 0.001000 0.000000 0.000000 0.001000 0.000000 0.000000 0.001000 0.000000 0.000000 0.001000 0.000000 0.000000 0.001000 0.000000 0.000000 0.001000 0.000000 0.000000 0.001000 0.000000 0.000000 0.001000 0.000000 0.000000 0.001000 0.000000 0.000000 0.001000 0.000000 0.000000 0.001000 0.000000 0.000000 0.001000 0.000000 0.000000 0.001000 0.000000 0.000000 0.001000 0.000000 0.000000 0.001000 0.000000 0.000000 0.001000 0.000000 0.000000 0.001000 0.000000 0.000000 0.001000 0.000000 0.000000 0.001000 0.000000 0.000000 0.001000 0.000000 0.000000 0.001000 0.000000 0.000000 0.001000 0.000000 0.000000 0.001000 0.000000 0.000000 0.001000 0.000000 0.000000 0.001000 0.000000 0.000000 0.001000 0.000000 0.000000 0.001000 0.000000 0.000000 0.001000 0.000000 0.000000 0.001000 0.000000 0.000000 0.001000 0.000000 0.000000 0.001000 0.000000 0.000000 0.001000 0.000000 0.000000 0.001000 0.000000 0.000000 0.001000 0.000000 0.000000 0.001000 0.000000 0.000000 0.001000 0.000000 0.000000 0.001000 0.000000 0.000000 0.001000 0.000000 0.000000 0.001000 0.000000 0.000000 0.001000 0.000000 0.000000 0.001000 0.000000 0.000000 0.001000 0.000000 0.000000 0.001000 0.000000 0.000000 0.001000 0.000000 0.000000 0.001000 0.000000 0.000000 0.001000 0.000000 0.000000 0.001000 0.000000 0.000000 0.001000 0.000000 0.000000 0.001000 0.000000 0.000000 0.001000 0.000000 0.000000 0.001000 0.000000 0.000000 0.001000 0.000000 0.000000 0.001000 0.000000 0.000000 0.001000 0.000000 0.000000 0.001000 0.000000 0.000000 0.001000 0.000000 0.000000 0.001000 0.000000 0.000000 0.001000 0.000000 0.000000 0.001000 0.000000 0.000000 0.001000 0.000000 0.000000 0.001000 0.000000 0.000000 0.001000 0.000000 0.000000 0.001000 0.000000 0.000000 0.001000 0.000000 0.000000 0.001000 0.000000 0.000000 0.001000 0.000000 0.000000 0.001000 0.000000 0.000000 0.001000 0.000000 0.000000 0.001000 0.000000 0.000000 0.001000 0.000000 0.000000 0.001000 0.000000 0.000000 0.001000 0.000000 0.000000 0.001000 0.000000 0.000000 0.001000 0.000000 0.000000 0.001000 0.000000 0.000000 0.001000 0.000000 0.000000 0.001000 0.000000 0.000000 0.001000 0.000000 0.000000 0.001000 0.000000 0.000000 0.001000 0.000000 0.000000 0.001000 0.000000 0.000000 0.001000 0.000000 0.000000 0.001000 0.000000 0.000000 0.001000 0.000000 0.000000 0.001000 0.000000 0.000000 0.001000 0.000000 0.000000 0.001000 0.000000 0.000000 0.001000 0.000000 0.000000 0.001000 0.000000 0.000000 0.001000 0.000000 0.000000 0.001000 0.000000 0.000000 0.001000 0.000000 0.000000 0.001000 0.000000 0.000000 0.001000 0.000000 0.000000 0.001000 0.000000 0.000000 0.001000 0.000000 0.000000 0.001000 0.000000 0.000000 0.001000 0.000000 0.000000 0.001000 0.000000 0.000000 0.001000 0.000000 0.000000 0.001000 0.000000 0.000000 0.001000 0.000000 0.000000 0.001000 0.000000 0.000000 0.001000 0.000000 0.000000 0.001000 0.000000 0.000000 0.001000 0.000000 0.000000 0.001000 0.000000 0.000000 0.001000 0.000000 0.000000 0.001000 0.000000 0.000000 0.001000 0.000000 0.000000 0.001000 0.000000 0.000000 0.001000 0.000000 0.000000 0.001000 0.000000 0.000000 0.001000 0.000000 0.000000 0.001000 0.000000 0.000000 0.001000 0.000000 0.000000 0.001000 0.000000 0.000000 0.001000 0.000000 0.000000 0.001000 0.000000 0.000000 0.001000 0.000000 0.000000 0.001000 0.000000 0.000000 0.001000 0.000000 0.000000 0.001000 0.000000 0.000000 0.001000 0.000000 0.000000 0.001000 0.000000 0.000000 0.001000 0.000000 0.000000 0.001000 0.000000 0.000000 0.001000 0.000000 0.000000 0.001000 0.000000 0.000000 0.001000 0.000000 0.000000 0.001000 0.000000 0.000000 0.001000 0.000000 0.000000 0.001000 0.000000 0.000000 0.001000 0.000000 0.000000 0.001000 0.000000 0.000000 0.001000 0.000000 0.000000 0.001000 0.000000 0.000000 0.001000 0.000000 0.000000 0.001000 0.000000 0.000000 0.001000 0.000000 0.000000 0.001000 0.000000 0.000000 0.001000 0.000000 0.000000 0.001000 0.000000 0.000000 0.001000 0.000000 0.000000 0.001000 0.000000 0.000000 0.001000 0.000000 0.000000 0.001000 0.000000 0.000000 0.001000 0.000000 0.000000 0.001000 0.000000 0.000000 0.001000 0.000000 0.000000 0.001000 0.000000 0.000000 0.001000 0.000000 0.000000 0.001000 0.000000 0.000000 0.001000 0.000000 0.000000 0.001000 0.000000 0.000000 0.001000 0.000000 0.000000 0.001000 0.000000 0.000000 0.001000 0.000000 0.000000 0.001000 0.000000 0.000000 0.001000 0.000000 0.000000 0.001000 0.000000 0.000000 0.001000 0.000000 0.000000 0.001000 0.000000 0.000000 0.001000 0.000000 0.000000 0.001000 0.000000 0.000000 0.001000 0.000000 0.000000 0.001000 0.000000 0.000000 0.001000 0.000000 0.000000 0.001000 0.000000 0.000000 0.001000 0.000000 0.000000 0.001000 0.000000 0.000000 0.001000 0.000000 0.000000 0.001000 0.000000 0.000000 0.001000 0.000000 0.000000 0.001000 0.000000 0.000000 0.001000 0.000000 0.000000 0.001000 0.000000 0.000000 0.001000 0.000000 0.000000 0.001000 0.000000 0.000000 0.001000 0.000000 0.000000 0.001000 0.000000 0.000000 0.001000 0.000000 0.000000 0.001000 0.000000 0.000000 0.001000 0.000000 0.000000 0.001000 0.000000 0.000000 0.001000 0.000000 0.000000 0.001000 0.000000 0.000000 0.001000 0.000000 0.000000 0.001000 0.000000 0.000000 0.001000 0.000000 0.000000 0.001000 0.000000 0.000000 0.001000 0.000000 0.000000 0.001000 0.000000 0.000000 0.001000 0.000000 0.000000 0.001000 0.000000 0.000000 0.001000 0.000000 0.000000 0.001000 0.000000 0.000000 0.001000 0.000000 0.000000 0.001000 0.000000 0.000000 0.001000 0.000000 0.000000 0.001000 0.000000 0.000000 0.001000 0.000000 0.000000 0.001000 0.000000 0.000000 0.001000 0.000000 0.000000 0.001000 0.000000 0.000000 0.001000 0.000000 0.000000 0.001000 0.000000 0.000000 0.001000 0.000000 0.000000 0.001000 0.000000 0.000000 0.001000 0.000000 0.000000 0.001000 0.000000 0.000000 0.001000 0.000000 0.000000 0.001000 0.000000 0.000000 0.001000 0.000000 0.000000 0.001000 0.000000 0.000000 0.001000 0.000000 0.000000 0.001000 0.000000 0.000000 0.001000 0.000000 0.000000 0.001000 0.000000 0.000000 0.001000 0.000000 0.000000 0.001000 0.000000 0.000000 0.001000 0.000000 0.000000 0.001000 0.000000 0.000000 0.001000 0.000000 0.000000 0.001000 0.000000 0.000000 0.001000 0.000000 0.000000 0.001000 0.000000 0.000000 0.001000 0.000000 0.000000 0.001000 0.000000 0.000000 0.001000 0.000000 0.000000 0.001000 0.000000 0.000000 0.001000 0.000000 0.000000 0.001000 0.000000 0.000000 0.001000 0.000000 0.000000 0.001000 0.000000 0.000000 0.001000 0.000000 0.000000 0.001000 0.000000 0.000000 0.001000 0.000000 0.000000 0.001000 0.000000 0.000000 0.001000 0.000000 0.000000 0.001000 0.000000 0.000000 0.001000 0.000000 0.000000 0.001000 0.000000 0.000000 0.001000 0.000000 0.000000 0.001000 0.000000 0.000000 0.001000 0.000000 0.000000 0.001000 0.000000 0.000000 0.001000 0.000000 0.000000 0.001000 0.000000 0.000000 0.001000 0.000000 0.000000 0.001000 0.000000 0.000000 0.001000 0.000000 0.000000 0.001000 0.000000 0.000000 0.001000 0.000000 0.000000 0.001000 0.000000 0.000000 0.001000 0.000000 0.000000 0.001000 0.000000 0.000000 0.001000 0.000000 0.000000 0.001000 0.000000 0.000000 0.001000 0.000000 0.000000 0.001000 0.000000 0.000000 0.001000 0.000000 0.000000 0.001000 0.000000 0.000000 0.001000 0.000000 0.000000 0.001000 0.000000 0.000000 0.001000 0.000000 0.000000 0.001000 0.000000 0.000000 0.001000 0.000000 0.000000 0.001000 0.000000 0.000000 0.001000 0.000000 0.000000 0.001000 0.000000 0.000000 0.001000 0.000000 0.000000 0.001000 0.000000 0.000000 0.001000 0.000000 0.000000 0.001000 0.000000 0.000000 0.001000 0.000000 0.000000 0.001000 0.000000 0.000000 0.001000 0.000000 0.000000 0.001000 0.000000 0.000000 0.001000 0.000000 0.000000 0.001000 0.000000 0.000000 0.001000 0.000000 0.000000 0.001000 0.000000 0.000000 0.001000 0.000000 0.000000 0.001000 0.000000 0.000000 0.001000 0.000000 0.000000 0.001000 0.000000 0.000000 0.001000 0.000000 0.000000 0.001000 0.000000 0.000000 0.001000 0.000000 0.000000 0.001000 0.000000 0.000000 0.001000 0.000000 0.000000 0.001000 0.000000 0.000000 0.001000 0.000000 0.000000 0.001000 0.000000 0.000000 0.001000 0.000000 0.000000 0.001000 0.000000 0.000000 0.001000 0.000000 0.000000 0.001000 0.000000 0.000000 0.001000 0.000000 0.000000 0.001000 0.000000 0.000000 0.001000 0.000000 0.000000 0.001000 0.000000 0.000000 0.001000 0.000000 0.000000 0.001000 0.000000 0.000000 0.001000 0.000000 0.000000 0.001000 0.000000 0.000000 0.001000 0.000000 0.000000 0.001000 0.000000 0.000000 0.001000 0.000000 0.000000 0.001000 0.000000 0.000000 0.001000 0.000000 0.000000 0.001000 0.000000 0.000000 0.001000 0.000000 0.000000 0.001000 0.000000 0.000000 0.001000 0.000000 0.000000 0.001000 0.000000 0.000000 0.001000 0.000000 0.000000 0.001000 0.000000 0.000000 0.001000 0.000000 0.000000 0.001000 0.000000 0.000000 0.001000 0.000000 0.000000 0.001000 0.000000 0.000000 0.001000 0.000000 0.000000 0.001000 0.000000 0.000000 0.001000 0.000000 0.000000 0.001000 0.000000 0.000000 0.001000 0.000000 0.000000 0.001000 0.000000 0.000000 0.001000 0.000000 0.000000 0.001000 0.000000 0.000000 0.001000 0.000000 0.000000 0.001000 0.000000 0.000000 0.001000 0.000000 0.000000 0.001000 0.000000 0.000000 0.001000 0.000000 0.000000 0.001000 0.000000 0.000000 0.001000 0.000000 0.000000 0.001000 0.000000 0.000000 0.001000 0.000000 0.000000 0.001000 0.000000 0.000000 0.001000 0.000000 0.000000 0.001000 0.000000 0.000000 0.001000 0.000000 0.000000 0.001000 0.000000 0.000000 0.001000 0.000000 0.000000 0.001000 0.000000 0.000000 0.001000 0.000000 0.000000 0.001000 0.000000 0.000000 0.001000 0.000000 0.000000 0.001000 0.000000 0.000000 0.001000 0.000000 0.000000 0.001000 0.000000 0.000000 0.001000 0.000000 0.000000 0.001000 0.000000 0.000000 0.001000 0.000000 0.000000 0.001000 0.000000 0.000000 0.001000 0.000000 0.000000 0.001000 0.000000 0.000000 0.001000 0.000000 0.000000 0.001000 0.000000 0.000000 0.001000 0.000000 0.000000 0.001000 0.000000 0.000000 0.001000 0.000000 0.000000 0.001000 0.000000 0.000000 0.001000 0.000000 0.000000 0.001000 0.000000 0.000000 0.001000 0.000000 0.000000 0.001000 0.000000 0.000000 0.001000 0.000000 0.000000 0.001000 0.000000 0.000000 0.001000 0.000000 0.000000 0.001000 0.000000 0.000000 0.001000 0.000000 0.000000 0.001000 0.000000 0.000000 0.001000 0.000000 0.000000 0.001000 0.000000 0.000000 0.001000 0.000000 0.000000 0.001000 0.000000 0.000000 0.001000 0.000000 0.000000 0.001000 0.000000 0.000000 0.001000 0.000000 0.000000 0.001000 0.000000 0.000000 0.001000 0.000000 0.000000 0.001000 0.000000 0.000000 0.001000 0.000000 0.000000 0.001000 0.000000 0.000000 0.001000 0.000000 0.000000 0.001000 0.000000 0.000000 0.001000 0.000000 0.000000 0.001000 0.000000 0.000000 0.001000 0.000000 0.000000 0.001000 0.000000 0.000000 0.001000 0.000000 0.000000 0.001000 0.000000 0.000000 0.001000 0.000000 0.000000 0.001000 0.000000 0.000000 0.001000 0.000000 0.000000 0.001000 0.000000 0.000000 0.001000 0.000000 0.000000 0.001000 0.000000 0.000000 0.001000 0.000000 0.000000 0.001000 0.000000 0.000000 0.001000 0.000000 0.000000 0.001000 0.000000 0.000000 0.001000 0.000000 0.000000 0.001000 0.000000 0.000000 0.001000 0.000000 0.000000 0.001000 0.000000 0.000000 0.001000 0.000000 0.000000 0.001000 0.000000 0.000000 0.001000 0.000000 0.000000 0.001000 0.000000 0.000000 0.001000 0.000000 0.000000 0.001000 0.000000 0.000000 0.001000 0.000000 0.000000 0.001000 0.000000 0.000000 0.001000 0.000000 0.000000 0.001000 0.000000 0.000000 0.001000 0.000000 0.000000 0.001000 0.000000 0.000000 0.001000 0.000000 0.000000 0.001000 0.000000 0.000000 0.001000 0.000000 0.000000 0.001000 0.000000 0.000000 0.001000 0.000000 0.000000 0.001000 0.000000 0.000000 0.001000 0.000000 0.000000 0.001000 0.000000 0.000000 0.001000 0.000000 0.000000 0.001000 0.000000 0.000000 0.001000 0.000000 0.000000 0.001000 0.000000 0.000000 0.001000 0.000000 0.000000 0.001000 0.000000 0.000000 0.001000 0.000000 0.000000 0.001000 0.000000 0.000000 0.001000 0.000000 0.000000 0.001000 0.000000 0.000000 0.001000 0.000000 0.000000 0.001000 0.000000 0.000000 0.001000 0.000000 0.000000 0.001000 0.000000 0.000000 0.001000 0.000000 0.000000 0.001000 0.000000 0.000000 0.001000 0.000000 0.000000 0.001000 0.000000 0.000000 0.001000 0.000000 0.000000 0.001000 0.000000 0.000000 0.001000 0.000000 0.000000 0.001000 0.000000 0.000000 0.001000 0.000000 0.000000 0.001000 0.000000 0.000000 0.001000 0.000000 0.000000 0.001000 0.000000 0.000000 0.001000 0.000000 0.000000 0.001000 0.000000 0.000000 0.001000 0.000000 0.000000 0.001000 0.000000 0.000000 0.001000 0.000000 0.000000 0.001000 0.000000 0.000000 0.001000 0.000000 0.000000 0.001000 0.000000 0.000000 0.001000 0.000000 0.000000 0.001000 0.000000 0.000000 0.001000 0.000000 0.000000 0.001000 0.000000 0.000000 0.001000 0.000000 0.000000 0.001000 0.000000 0.000000 0.001000 0.000000 0.000000 0.001000 0.000000 0.000000 0.001