# vtk DataFile Version 2.0
density_2
ASCII

DATASET STRUCTURED_POINTS
DIMENSIONS 12 12 12
ORIGIN 0.500000 0.500000 0.500000
SPACING 1.000000 1.000000 1.000000

POINT_DATA 1728
SCALARS density_2 float 1
LOOKUP_TABLE default
0.000000e+00
1.410608e-06
2.576084e-06
3.355995e-06
3.754253e-06
3.895037e-06
3.895039e-06
3.754254e-06
3.355995e-06
2.576084e-06
1.410609e-06
0.000000e+00
1.410608e-06
7.147069e-06
1.304672e-05
1.697403e-05
1.899628e-05
1.969899e-05
1.969899e-05
1.899628e-05
1.697403e-05
1.304672e-05
7.147071e-06
1.410609e-06
2.576083e-06
1.304672e-05
2.350505e-05
3.001079e-05
3.282656e-05
3.352390e-05
3.352391e-05
3.282656e-05
3.001079e-05
2.350505e-05
1.304672e-05
2.576084e-06
3.355995e-06
1.697403e-05
3.001079e-05
3.709937e-05
3.911875e-05
3.882514e-05
3.882514e-05
3.911875e-05
3.709937e-05
3.001079e-05
1.697403e-05
3.355995e-06
3.754252e-06
1.899628e-05
3.282656e-05
3.911875e-05
3.928306e-05
3.753840e-05
3.753840e-05
3.928306e-05
3.911875e-05
3.282656e-05
1.899628e-05
3.754254e-06
3.895038e-06
1.969899e-05
3.352390e-05
3.882514e-05
3.753840e-05
3.468746e-05
3.468746e-05
3.753840e-05
3.882514e-05
3.352390e-05
1.969899e-05
3.895038e-06
3.895038e-06
1.969899e-05
3.352390e-05
3.882513e-05
3.753840e-05
3.468746e-05
3.468746e-05
3.753840e-05
3.882514e-05
3.352391e-05
1.969899e-05
3.895038e-06
3.754253e-06
1.899628e-05
3.282656e-05
3.911875e-05
3.928305e-05
3.753840e-05
3.753840e-05
3.928305e-05
3.911875e-05
3.282656e-05
1.899628e-05
3.754255e-06
3.355995e-06
1.697403e-05
3.001079e-05
3.709937e-05
3.911875e-05
3.882513e-05
3.882514e-05
3.911875e-05
3.709937e-05
3.001079e-05
1.697403e-05
3.355995e-06
2.576083e-06
1.304672e-05
2.350504e-05
3.001079e-05
3.282656e-05
3.352390e-05
3.352390e-05
3.282656e-05
3.001079e-05
2.350506e-05
1.304672e-05
2.576086e-06
1.410608e-06
7.147068e-06
1.304672e-05
1.697403e-05
1.899628e-05
1.969899e-05
1.969899e-05
1.899628e-05
1.697403e-05
1.304672e-05
7.147075e-06
1.410609e-06
0.000000e+00
1.410608e-06
2.576083e-06
3.355995e-06
3.754253e-06
3.895038e-06
3.895038e-06
3.754253e-06
3.355995e-06
2.576086e-06
1.410609e-06
0.000000e+00
1.410608e-06
7.912346e-06
1.454072e-05
1.908833e-05
2.157182e-05
2.250384e-05
2.250384e-05
2.157182e-05
1.908833e-05
1.454072e-05
7.912347e-06
1.410609e-06
7.912345e-06
1.272889e-04
2.324578e-04
3.028345e-04
3.387722e-04
3.514761e-04
3.514760e-04
3.387722e-04
3.028345e-04
2.324579e-04
1.272889e-04
7.912347e-06
1.454071e-05
2.324577e-04
4.184270e-04
5.321810e-04
5.807588e-04
5.902655e-04
5.902656e-04
5.807588e-04
5.321811e-04
4.184270e-04
2.324579e-04
1.454072e-05
1.908833e-05
3.028345e-04
5.321812e-04
6.534422e-04
6.796314e-04
6.678312e-04
6.678312e-04
6.796315e-04
6.534423e-04
5.321811e-04
3.028345e-04
1.908833e-05
2.157182e-05
3.387720e-04
5.807588e-04
6.796314e-04
6.667785e-04
6.212756e-04
6.212756e-04
6.667784e-04
6.796314e-04
5.807588e-04
3.387722e-04
2.157182e-05
2.250385e-05
3.514761e-04
5.902654e-04
6.678312e-04
6.212756e-04
5.528468e-04
5.528468e-04
6.212756e-04
6.678312e-04
5.902654e-04
3.514762e-04
2.250384e-05
2.250384e-05
3.514762e-04
5.902654e-04
6.678312e-04
6.212756e-04
5.528468e-04
5.528468e-04
6.212756e-04
6.678312e-04
5.902655e-04
3.514762e-04
2.250385e-05
2.157182e-05
3.387721e-04
5.807588e-04
6.796313e-04
6.667784e-04
6.212756e-04
6.212756e-04
6.667784e-04
6.796314e-04
5.807587e-04
3.387723e-04
2.157182e-05
1.908833e-05
3.028345e-04
5.321810e-04
6.534423e-04
6.796313e-04
6.678312e-04
6.678312e-04
6.796314e-04
6.534422e-04
5.321811e-04
3.028345e-04
1.908834e-05
1.454071e-05
2.324577e-04
4.184269e-04
5.321811e-04
5.807588e-04
5.902654e-04
5.902654e-04
5.807588e-04
5.321811e-04
4.184270e-04
2.324580e-04
1.454072e-05
7.912343e-06
1.272889e-04
2.324577e-04
3.028345e-04
3.387721e-04
3.514761e-04
3.514762e-04
3.387721e-04
3.028346e-04
2.324580e-04
1.272889e-04
7.912351e-06
1.410608e-06
7.912344e-06
1.454071e-05
1.908833e-05
2.157181e-05
2.250384e-05
2.250384e-05
2.157182e-05
1.908833e-05
1.454072e-05
7.912351e-06
1.410609e-06
3.339964e-06
1.866660e-05
3.454493e-05
4.574232e-05
5.203205e-05
5.474016e-05
5.474015e-05
5.203205e-05
4.574232e-05
3.454494e-05
1.866660e-05
3.339965e-06
1.866659e-05
3.013879e-04
5.528918e-04
7.225228e-04
8.127398e-04
8.429762e-04
8.429761e-04
8.127397e-04
7.225228e-04
5.528919e-04
3.013880e-04
1.866660e-05
3.454492e-05
5.528913e-04
9.922237e-04
1.257659e-03
1.357128e-03
1.371601e-03
1.371601e-03
1.357128e-03
1.257659e-03
9.922241e-04
5.528919e-04
3.454494e-05
4.574231e-05
7.225228e-04
1.257660e-03
1.505604e-03
1.535329e-03
1.447749e-03
1.447749e-03
1.535328e-03
1.505602e-03
1.257659e-03
7.225228e-04
4.574232e-05
5.203206e-05
8.127398e-04
1.357128e-03
1.535330e-03
1.387933e-03
1.203787e-03
1.203786e-03
1.387932e-03
1.535328e-03
1.357128e-03
8.127397e-04
5.203205e-05
5.474016e-05
8.429763e-04
1.371601e-03
1.447749e-03
1.203787e-03
9.189684e-04
9.189684e-04
1.203786e-03
1.447748e-03
1.371601e-03
8.429760e-04
5.474015e-05
5.474016e-05
8.429760e-04
1.371600e-03
1.447748e-03
1.203786e-03
9.189683e-04
9.189683e-04
1.203786e-03
1.447748e-03
1.371601e-03
8.429761e-04
5.474016e-05
5.203205e-05
8.127397e-04
1.357128e-03
1.535328e-03
1.387931e-03
1.203786e-03
1.203786e-03
1.387932e-03
1.535328e-03
1.357128e-03
8.127398e-04
5.203205e-05
4.574231e-05
7.225228e-04
1.257659e-03
1.505602e-03
1.535328e-03
1.447748e-03
1.447748e-03
1.535328e-03
1.505602e-03
1.257659e-03
7.225228e-04
4.574232e-05
3.454492e-05
5.528913e-04
9.922240e-04
1.257659e-03
1.357128e-03
1.371601e-03
1.371601e-03
1.357128e-03
1.257659e-03
9.922249e-04
5.528919e-04
3.454494e-05
1.866659e-05
3.013879e-04
5.528914e-04
7.225227e-04
8.127397e-04
8.429759e-04
8.429760e-04
8.127397e-04
7.225230e-04
5.528919e-04
3.013882e-04
1.866660e-05
3.339963e-06
1.866659e-05
3.454492e-05
4.574231e-05
5.203205e-05
5.474015e-05
5.474015e-05
5.203205e-05
4.574232e-05
3.454494e-05
1.866660e-05
3.339967e-06
6.403308e-06
3.556353e-05
6.683089e-05
9.103660e-05
1.061665e-04
1.141216e-04
1.141216e-04
1.061665e-04
9.103659e-05
6.683089e-05
3.556353e-05
6.403310e-06
3.556353e-05
5.778146e-04
1.078300e-03
1.436566e-03
1.640826e-03
1.739500e-03
1.739500e-03
1.640825e-03
1.436566e-03
1.078300e-03
5.778149e-04
3.556353e-05
6.683087e-05
1.078300e-03
1.948393e-03
2.460642e-03
2.677643e-03
2.642525e-03
2.642523e-03
2.677641e-03
2.460642e-03
1.948395e-03
1.078300e-03
6.683089e-05
9.103659e-05
1.436566e-03
2.460642e-03
2.883061e-03
2.752975e-03
2.540322e-03
2.540322e-03
2.752973e-03
2.883060e-03
2.460642e-03
1.436566e-03
9.103658e-05
1.061665e-04
1.640826e-03
2.677645e-03
2.752977e-03
2.505073e-03
0.000000e+00
0.000000e+00
2.505073e-03
2.752973e-03
2.677641e-03
1.640825e-03
1.061665e-04
1.141216e-04
1.739500e-03
2.642524e-03
2.540324e-03
0.000000e+00
0.000000e+00
0.000000e+00
0.000000e+00
2.540322e-03
2.642523e-03
1.739500e-03
1.141216e-04
1.141216e-04
1.739500e-03
2.642523e-03
2.540322e-03
0.000000e+00
0.000000e+00
0.000000e+00
0.000000e+00
2.540322e-03
2.642523e-03
1.739500e-03
1.141216e-04
1.061665e-04
1.640825e-03
2.677641e-03
2.752972e-03
2.505072e-03
0.000000e+00
0.000000e+00
2.505073e-03
2.752972e-03
2.677641e-03
1.640825e-03
1.061665e-04
9.103657e-05
1.436566e-03
2.460642e-03
2.883060e-03
2.752972e-03
2.540322e-03
2.540322e-03
2.752972e-03
2.883060e-03
2.460642e-03
1.436566e-03
9.103658e-05
6.683086e-05
1.078300e-03
1.948393e-03
2.460642e-03
2.677641e-03
2.642523e-03
2.642523e-03
2.677641e-03
2.460642e-03
1.948394e-03
1.078300e-03
6.683089e-05
3.556352e-05
5.778143e-04
1.078300e-03
1.436565e-03
1.640825e-03
1.739500e-03
1.739500e-03
1.640825e-03
1.436566e-03
1.078300e-03
5.778146e-04
3.556353e-05
6.403305e-06
3.556352e-05
6.683086e-05
9.103656e-05
1.061665e-04
1.141216e-04
1.141216e-04
1.061665e-04
9.103658e-05
6.683088e-05
3.556353e-05
6.403308e-06
1.121827e-05
6.119509e-05
1.194230e-04
1.691667e-04
2.122194e-04
2.330515e-04
2.330514e-04
2.122193e-04
1.691667e-04
1.194230e-04
6.119508e-05
1.121827e-05
6.119508e-05
1.012302e-03
1.938393e-03
2.741600e-03
3.270853e-03
3.614653e-03
3.614652e-03
3.270850e-03
2.741600e-03
1.938393e-03
1.012301e-03
6.119507e-05
1.194229e-04
1.938392e-03
3.655071e-03
4.749519e-03
5.183769e-03
5.585982e-03
5.585982e-03
5.183766e-03
4.749518e-03
3.655071e-03
1.938392e-03
1.194229e-04
1.691667e-04
2.741599e-03
4.749519e-03
5.171617e-03
4.992736e-03
0.000000e+00
0.000000e+00
4.992729e-03
5.171614e-03
4.749518e-03
2.741599e-03
1.691667e-04
2.122194e-04
3.270852e-03
5.183771e-03
4.992738e-03
0.000000e+00
0.000000e+00
0.000000e+00
0.000000e+00
4.992729e-03
5.183767e-03
3.270851e-03
2.122193e-04
2.330515e-04
3.614654e-03
5.585984e-03
0.000000e+00
0.000000e+00
0.000000e+00
0.000000e+00
0.000000e+00
0.000000e+00
5.585982e-03
3.614652e-03
2.330514e-04
2.330514e-04
3.614652e-03
5.585982e-03
0.000000e+00
0.000000e+00
0.000000e+00
0.000000e+00
0.000000e+00
0.000000e+00
5.585982e-03
3.614652e-03
2.330514e-04
2.122193e-04
3.270849e-03
5.183766e-03
4.992726e-03
0.000000e+00
0.000000e+00
0.000000e+00
0.000000e+00
4.992726e-03
5.183765e-03
3.270849e-03
2.122193e-04
1.691667e-04
2.741599e-03
4.749514e-03
5.171614e-03
4.992726e-03
0.000000e+00
0.000000e+00
4.992726e-03
5.171614e-03
4.749514e-03
2.741599e-03
1.691667e-04
1.194229e-04
1.938392e-03
3.655069e-03
4.749514e-03
5.183765e-03
5.585982e-03
5.585982e-03
5.183765e-03
4.749514e-03
3.655069e-03
1.938392e-03
1.194229e-04
6.119507e-05
1.012301e-03
1.938392e-03
2.741599e-03
3.270849e-03
3.614652e-03
3.614652e-03
3.270849e-03
2.741599e-03
1.938393e-03
1.012301e-03
6.119507e-05
1.121826e-05
6.119507e-05
1.194229e-04
1.691666e-04
2.122193e-04
2.330514e-04
2.330514e-04
2.122193e-04
1.691667e-04
1.194229e-04
6.119507e-05
1.121826e-05
1.744559e-05
9.471036e-05
1.898363e-04
2.925249e-04
3.812260e-04
4.402969e-04
4.402969e-04
3.812259e-04
2.925249e-04
1.898362e-04
9.471036e-05
1.744559e-05
9.471036e-05
1.574236e-03
3.202853e-03
4.742062e-03
6.527252e-03
7.292944e-03
7.292942e-03
6.527251e-03
4.742062e-03
3.202853e-03
1.574236e-03
9.471035e-05
1.898362e-04
3.202853e-03
6.222152e-03
9.627919e-03
1.095655e-02
1.307219e-02
1.307219e-02
1.095654e-02
9.627918e-03
6.222147e-03
3.202853e-03
1.898362e-04
2.925249e-04
4.742061e-03
9.627920e-03
1.068430e-02
0.000000e+00
0.000000e+00
0.000000e+00
0.000000e+00
1.068429e-02
9.627919e-03
4.742061e-03
2.925249e-04
3.812260e-04
6.527254e-03
1.095655e-02
0.000000e+00
0.000000e+00
0.000000e+00
0.000000e+00
0.000000e+00
0.000000e+00
1.095654e-02
6.527254e-03
3.812260e-04
4.402970e-04
7.292946e-03
1.307220e-02
0.000000e+00
0.000000e+00
0.000000e+00
0.000000e+00
0.000000e+00
0.000000e+00
1.307219e-02
7.292943e-03
4.402970e-04
4.402969e-04
7.292942e-03
1.307220e-02
0.000000e+00
0.000000e+00
0.000000e+00
0.000000e+00
0.000000e+00
0.000000e+00
1.307219e-02
7.292942e-03
4.402969e-04
3.812259e-04
6.527251e-03
1.095653e-02
0.000000e+00
0.000000e+00
0.000000e+00
0.000000e+00
0.000000e+00
0.000000e+00
1.095653e-02
6.527252e-03
3.812259e-04
2.925248e-04
4.742061e-03
9.627916e-03
1.068429e-02
0.000000e+00
0.000000e+00
0.000000e+00
0.000000e+00
1.068429e-02
9.627917e-03
4.742062e-03
2.925248e-04
1.898362e-04
3.202852e-03
6.222147e-03
9.627916e-03
1.095653e-02
1.307219e-02
1.307219e-02
1.095653e-02
9.627916e-03
6.222147e-03
3.202853e-03
1.898362e-04
9.471033e-05
1.574236e-03
3.202852e-03
4.742061e-03
6.527252e-03
7.292943e-03
7.292943e-03
6.527252e-03
4.742061e-03
3.202853e-03
1.574236e-03
9.471033e-05
1.744560e-05
9.471033e-05
1.898362e-04
2.925248e-04
3.812259e-04
4.402969e-04
4.402969e-04
3.812259e-04
2.925248e-04
1.898362e-04
9.471033e-05
1.744559e-05
2.332647e-05
1.237517e-04
2.597274e-04
4.047808e-04
5.563513e-04
6.479963e-04
6.479963e-04
5.563512e-04
4.047808e-04
2.597274e-04
1.237517e-04
2.332646e-05
1.237517e-04
2.104908e-03
4.346023e-03
7.218543e-03
9.863861e-03
1.198240e-02
1.198239e-02
9.863860e-03
7.218543e-03
4.346023e-03
2.104908e-03
1.237517e-04
2.597274e-04
4.346023e-03
9.471245e-03
1.442470e-02
2.721908e-02
2.917822e-02
2.917823e-02
2.721907e-02
1.442470e-02
9.471245e-03
4.346022e-03
2.597273e-04
4.047808e-04
7.218544e-03
1.442471e-02
3.039066e-02
0.000000e+00
0.000000e+00
0.000000e+00
0.000000e+00
3.039064e-02
1.442471e-02
7.218544e-03
4.047808e-04
5.563513e-04
9.863862e-03
2.721908e-02
0.000000e+00
0.000000e+00
0.000000e+00
0.000000e+00
0.000000e+00
0.000000e+00
2.721908e-02
9.863863e-03
5.563514e-04
6.479966e-04
1.198240e-02
2.917823e-02
0.000000e+00
0.000000e+00
0.000000e+00
0.000000e+00
0.000000e+00
0.000000e+00
2.917823e-02
1.198240e-02
6.479966e-04
6.479965e-04
1.198240e-02
2.917823e-02
0.000000e+00
0.000000e+00
0.000000e+00
0.000000e+00
0.000000e+00
0.000000e+00
2.917823e-02
1.198240e-02
6.479966e-04
5.563513e-04
9.863861e-03
2.721908e-02
0.000000e+00
0.000000e+00
0.000000e+00
0.000000e+00
0.000000e+00
0.000000e+00
2.721908e-02
9.863861e-03
5.563513e-04
4.047807e-04
7.218541e-03
1.442469e-02
3.039063e-02
0.000000e+00
0.000000e+00
0.000000e+00
0.000000e+00
3.039063e-02
1.442470e-02
7.218543e-03
4.047808e-04
2.597272e-04
4.346022e-03
9.471241e-03
1.442469e-02
2.721908e-02
2.917823e-02
2.917823e-02
2.721908e-02
1.442470e-02
9.471241e-03
4.346022e-03
2.597272e-04
1.237517e-04
2.104906e-03
4.346022e-03
7.218542e-03
9.863861e-03
1.198240e-02
1.198240e-02
9.863862e-03
7.218542e-03
4.346022e-03
2.104906e-03
1.237517e-04
2.332645e-05
1.237517e-04
2.597272e-04
4.047807e-04
5.563513e-04
6.479966e-04
6.479965e-04
5.563513e-04
4.047807e-04
2.597272e-04
1.237517e-04
2.332645e-05
2.515513e-05
1.338693e-04
2.754308e-04
4.354221e-04
5.843412e-04
6.883744e-04
6.883743e-04
5.843411e-04
4.354220e-04
2.754307e-04
1.338693e-04
2.515514e-05
1.338693e-04
2.269922e-03
4.764480e-03
7.365653e-03
1.052561e-02
1.238831e-02
1.238830e-02
1.052560e-02
7.365650e-03
4.764480e-03
2.269921e-03
1.338693e-04
2.754308e-04
4.764481e-03
1.027070e-02
1.687719e-02
2.116889e-02
3.077814e-02
3.077813e-02
2.116888e-02
1.687719e-02
1.027069e-02
4.764481e-03
2.754308e-04
4.354222e-04
7.365657e-03
1.687719e-02
3.120974e-02
3.711519e-02
0.000000e+00
0.000000e+00
3.711518e-02
3.120971e-02
1.687719e-02
7.365656e-03
4.354222e-04
5.843416e-04
1.052561e-02
2.116890e-02
3.711519e-02
0.000000e+00
0.000000e+00
0.000000e+00
0.000000e+00
3.711518e-02
2.116889e-02
1.052561e-02
5.843417e-04
6.883749e-04
1.238832e-02
3.077816e-02
0.000000e+00
0.000000e+00
0.000000e+00
0.000000e+00
0.000000e+00
0.000000e+00
3.077819e-02
1.238832e-02
6.883751e-04
6.883747e-04
1.238832e-02
3.077816e-02
0.000000e+00
0.000000e+00
0.000000e+00
0.000000e+00
0.000000e+00
0.000000e+00
3.077818e-02
1.238832e-02
6.883749e-04
5.843415e-04
1.052561e-02
2.116889e-02
3.711517e-02
0.000000e+00
0.000000e+00
0.000000e+00
0.000000e+00
3.711518e-02
2.116889e-02
1.052561e-02
5.843416e-04
4.354220e-04
7.365651e-03
1.687717e-02
3.120968e-02
3.711517e-02
0.000000e+00
0.000000e+00
3.711518e-02
3.120968e-02
1.687717e-02
7.365652e-03
4.354220e-04
2.754306e-04
4.764475e-03
1.027069e-02
1.687717e-02
2.116889e-02
3.077816e-02
3.077816e-02
2.116889e-02
1.687717e-02
1.027069e-02
4.764474e-03
2.754306e-04
1.338692e-04
2.269922e-03
4.764475e-03
7.365651e-03
1.052561e-02
1.238832e-02
1.238832e-02
1.052561e-02
7.365651e-03
4.764475e-03
2.269922e-03
1.338692e-04
2.515514e-05
1.338692e-04
2.754306e-04
4.354220e-04
5.843415e-04
6.883747e-04
6.883747e-04
5.843415e-04
4.354220e-04
2.754306e-04
1.338692e-04
2.515514e-05
2.216839e-05
1.182029e-04
2.426207e-04
3.670415e-04
4.859036e-04
5.577285e-04
5.577285e-04
4.859036e-04
3.670414e-04
2.426207e-04
1.182029e-04
2.216839e-05
1.182029e-04
2.000406e-03
4.134425e-03
6.365899e-03
8.225863e-03
9.700747e-03
9.700745e-03
8.225860e-03
6.365899e-03
4.134425e-03
2.000407e-03
1.182029e-04
2.426208e-04
4.134425e-03
8.696699e-03
1.385631e-02
1.823611e-02
1.999488e-02
1.999488e-02
1.823610e-02
1.385630e-02
8.696697e-03
4.134425e-03
2.426207e-04
3.670417e-04
6.365899e-03
1.385631e-02
2.209449e-02
3.220884e-02
3.468296e-02
3.468296e-02
3.220884e-02
2.209448e-02
1.385631e-02
6.365899e-03
3.670417e-04
4.859040e-04
8.225873e-03
1.823612e-02
3.220884e-02
3.786509e-02
0.000000e+00
0.000000e+00
3.786509e-02
3.220883e-02
1.823612e-02
8.225878e-03
4.859040e-04
5.577289e-04
9.700758e-03
1.999488e-02
3.468296e-02
0.000000e+00
0.000000e+00
0.000000e+00
0.000000e+00
3.468296e-02
1.999489e-02
9.700755e-03
5.577290e-04
5.577289e-04
9.700747e-03
1.999488e-02
3.468295e-02
0.000000e+00
0.000000e+00
0.000000e+00
0.000000e+00
3.468295e-02
1.999488e-02
9.700747e-03
5.577289e-04
4.859038e-04
8.225872e-03
1.823610e-02
3.220882e-02
3.786508e-02
0.000000e+00
0.000000e+00
3.786508e-02
3.220882e-02
1.823610e-02
8.225873e-03
4.859038e-04
3.670414e-04
6.365895e-03
1.385630e-02
2.209447e-02
3.220882e-02
3.468295e-02
3.468295e-02
3.220882e-02
2.209447e-02
1.385630e-02
6.365896e-03
3.670415e-04
2.426205e-04
4.134422e-03
8.696693e-03
1.385630e-02
1.823610e-02
1.999488e-02
1.999488e-02
1.823610e-02
1.385630e-02
8.696692e-03
4.134422e-03
2.426206e-04
1.182028e-04
2.000407e-03
4.134422e-03
6.365897e-03
8.225872e-03
9.700747e-03
9.700747e-03
8.225871e-03
6.365895e-03
4.134422e-03
2.000406e-03
1.182028e-04
2.216839e-05
1.182028e-04
2.426206e-04
3.670414e-04
4.859038e-04
5.577287e-04
5.577287e-04
4.859037e-04
3.670414e-04
2.426205e-04
1.182028e-04
2.216838e-05
1.587946e-05
8.507640e-05
1.724709e-04
2.583319e-04
3.285229e-04
3.725566e-04
3.725566e-04
3.285228e-04
2.583319e-04
1.724709e-04
8.507639e-05
1.587946e-05
8.507640e-05
1.432913e-03
2.915596e-03
4.391999e-03
5.621057e-03
6.293845e-03
6.293845e-03
5.621055e-03
4.391999e-03
2.915596e-03
1.432913e-03
8.507639e-05
1.724710e-04
2.915596e-03
6.013028e-03
9.145974e-03
1.190311e-02
1.323310e-02
1.323310e-02
1.190311e-02
9.145974e-03
6.013027e-03
2.915596e-03
1.724709e-04
2.583321e-04
4.392005e-03
9.145977e-03
1.437849e-02
1.873896e-02
2.044307e-02
2.044306e-02
1.873896e-02
1.437848e-02
9.145976e-03
4.392005e-03
2.583320e-04
3.285232e-04
5.621059e-03
1.190312e-02
1.873897e-02
2.298962e-02
3.207542e-02
3.207542e-02
2.298961e-02
1.873897e-02
1.190312e-02
5.621058e-03
3.285232e-04
3.725570e-04
6.293851e-03
1.323311e-02
2.044307e-02
3.207542e-02
3.481062e-02
3.481063e-02
3.207542e-02
2.044307e-02
1.323311e-02
6.293848e-03
3.725568e-04
3.725568e-04
6.293853e-03
1.323310e-02
2.044306e-02
3.207542e-02
3.481062e-02
3.481062e-02
3.207542e-02
2.044307e-02
1.323310e-02
6.293850e-03
3.725568e-04
3.285231e-04
5.621057e-03
1.190312e-02
1.873896e-02
2.298960e-02
3.207542e-02
3.207542e-02
2.298960e-02
1.873896e-02
1.190312e-02
5.621057e-03
3.285231e-04
2.583319e-04
4.392002e-03
9.145973e-03
1.437848e-02
1.873896e-02
2.044306e-02
2.044306e-02
1.873896e-02
1.437848e-02
9.145974e-03
4.392003e-03
2.583319e-04
1.724708e-04
2.915594e-03
6.013023e-03
9.145973e-03
1.190311e-02
1.323309e-02
1.323309e-02
1.190311e-02
9.145972e-03
6.013023e-03
2.915594e-03
1.724708e-04
8.507637e-05
1.432913e-03
2.915594e-03
4.392001e-03
5.621057e-03
6.293844e-03
6.293844e-03
5.621055e-03
4.392001e-03
2.915594e-03
1.432913e-03
8.507637e-05
1.587946e-05
8.507637e-05
1.724708e-04
2.583319e-04
3.285230e-04
3.725566e-04
3.725566e-04
3.285230e-04
2.583319e-04
1.724708e-04
8.507636e-05
1.587946e-05
8.140602e-06
4.380018e-05
8.800600e-05
1.303665e-04
1.646455e-04
1.835857e-04
1.835857e-04
1.646455e-04
1.303665e-04
8.800599e-05
4.380018e-05
8.140600e-06
4.380020e-05
7.345826e-04
1.480622e-03
2.197293e-03
2.783803e-03
3.101861e-03
3.101861e-03
2.783803e-03
2.197293e-03
1.480622e-03
7.345825e-04
4.380018e-05
8.800604e-05
1.480624e-03
3.001479e-03
4.499825e-03
5.734108e-03
6.404264e-03
6.404263e-03
5.734108e-03
4.499825e-03
3.001478e-03
1.480623e-03
8.800601e-05
1.303666e-04
2.197294e-03
4.499825e-03
6.823075e-03
8.712390e-03
1.015907e-02
1.015906e-02
8.712390e-03
6.823075e-03
4.499825e-03
2.197294e-03
1.303666e-04
1.646457e-04
2.783804e-03
5.734109e-03
8.712390e-03
1.192359e-02
1.383600e-02
1.383600e-02
1.192359e-02
8.712390e-03
5.734109e-03
2.783803e-03
1.646456e-04
1.835859e-04
3.101866e-03
6.404263e-03
1.015907e-02
1.383600e-02
1.619722e-02
1.619722e-02
1.383600e-02
1.015907e-02
6.404264e-03
3.101864e-03
1.835858e-04
1.835859e-04
3.101863e-03
6.404263e-03
1.015906e-02
1.383600e-02
1.619722e-02
1.619722e-02
1.383600e-02
1.015906e-02
6.404263e-03
3.101863e-03
1.835858e-04
1.646456e-04
2.783803e-03
5.734108e-03
8.712390e-03
1.192359e-02
1.383600e-02
1.383600e-02
1.192359e-02
8.712389e-03
5.734107e-03
2.783804e-03
1.646456e-04
1.303665e-04
2.197292e-03
4.499825e-03
6.823075e-03
8.712390e-03
1.015906e-02
1.015906e-02
8.712390e-03
6.823075e-03
4.499825e-03
2.197292e-03
1.303665e-04
8.800596e-05
1.480622e-03
3.001477e-03
4.499825e-03
5.734107e-03
6.404263e-03
6.404262e-03
5.734107e-03
4.499825e-03
3.001478e-03
1.480622e-03
8.800597e-05
4.380017e-05
7.345825e-04
1.480622e-03
2.197292e-03
2.783803e-03
3.101860e-03
3.101861e-03
2.783803e-03
2.197292e-03
1.480622e-03
7.345827e-04
4.380017e-05
8.140599e-06
4.380017e-05
8.800597e-05
1.303665e-04
1.646455e-04
1.835857e-04
1.835857e-04
1.646455e-04
1.303665e-04
8.800597e-05
4.380017e-05
8.140601e-06
0.000000e+00
8.140602e-06
1.640817e-05
2.435027e-05
3.084995e-05
3.437465e-05
3.437464e-05
3.084994e-05
2.435027e-05
1.640817e-05
8.140600e-06
0.000000e+00
8.140602e-06
4.436094e-05
8.900381e-05
1.315975e-04
1.658984e-04
1.848093e-04
1.848094e-04
1.658984e-04
1.315975e-04
8.900381e-05
4.436093e-05
8.140600e-06
1.640819e-05
8.900385e-05
1.796049e-04
2.672928e-04
3.381049e-04
3.818426e-04
3.818426e-04
3.381049e-04
2.672928e-04
1.796048e-04
8.900384e-05
1.640818e-05
2.435029e-05
1.315976e-04
2.672928e-04
3.997668e-04
5.204193e-04
5.926490e-04
5.926490e-04
5.204193e-04
3.997668e-04
2.672928e-04
1.315975e-04
2.435028e-05
3.084995e-05
1.658985e-04
3.381050e-04
5.204193e-04
6.866292e-04
7.943861e-04
7.943860e-04
6.866292e-04
5.204193e-04
3.381049e-04
1.658985e-04
3.084995e-05
3.437469e-05
1.848095e-04
3.818428e-04
5.926490e-04
7.943861e-04
9.194992e-04
9.194992e-04
7.943861e-04
5.926490e-04
3.818427e-04
1.848094e-04
3.437468e-05
3.437467e-05
1.848094e-04
3.818426e-04
5.926490e-04
7.943860e-04
9.194992e-04
9.194992e-04
7.943860e-04
5.926490e-04
3.818426e-04
1.848094e-04
3.437467e-05
3.084994e-05
1.658984e-04
3.381049e-04
5.204192e-04
6.866292e-04
7.943860e-04
7.943860e-04
6.866292e-04
5.204192e-04
3.381049e-04
1.658984e-04
3.084994e-05
2.435027e-05
1.315975e-04
2.672927e-04
3.997668e-04
5.204192e-04
5.926489e-04
5.926488e-04
5.204192e-04
3.997668e-04
2.672927e-04
1.315975e-04
2.435027e-05
1.640817e-05
8.900379e-05
1.796048e-04
2.672927e-04
3.381049e-04
3.818425e-04
3.818425e-04
3.381049e-04
2.672927e-04
1.796048e-04
8.900381e-05
1.640817e-05
8.140599e-06
4.436092e-05
8.900379e-05
1.315975e-04
1.658984e-04
1.848093e-04
1.848093e-04
1.658984e-04
1.315975e-04
8.900381e-05
4.436092e-05
8.140601e-06
0.000000e+00
8.140599e-06
1.640817e-05
2.435027e-05
3.084995e-05
3.437464e-05
3.437464e-05
3.084995e-05
2.435027e-05
1.640817e-05
8.140601e-06
0.000000e+00
