# vtk DataFile Version 2.0
density_2
ASCII

DATASET STRUCTURED_POINTS
DIMENSIONS 12 12 12
ORIGIN 0.500000 0.500000 0.500000
SPACING 1.000000 1.000000 1.000000

POINT_DATA 1728
SCALARS density_2 float 1
LOOKUP_TABLE default
0.000000e+00
1.401575e-06
2.559573e-06
3.334530e-06
3.730282e-06
3.870125e-06
3.870126e-06
3.730282e-06
3.334530e-06
2.559573e-06
1.401574e-06
0.000000e+00
1.401575e-06
7.101272e-06
1.296331e-05
1.686579e-05
1.887513e-05
1.957321e-05
1.957320e-05
1.887513e-05
1.686579e-05
1.296331e-05
7.101271e-06
1.401574e-06
2.559573e-06
1.296331e-05
2.335543e-05
2.982030e-05
3.261825e-05
3.331072e-05
3.331072e-05
3.261824e-05
2.982030e-05
2.335543e-05
1.296331e-05
2.559573e-06
3.334529e-06
1.686579e-05
2.982030e-05
3.686501e-05
3.887200e-05
3.858015e-05
3.858015e-05
3.887200e-05
3.686501e-05
2.982030e-05
1.686579e-05
3.334530e-06
3.730283e-06
1.887513e-05
3.261825e-05
3.887200e-05
3.903691e-05
3.730394e-05
3.730394e-05
3.903691e-05
3.887200e-05
3.261824e-05
1.887513e-05
3.730281e-06
3.870128e-06
1.957321e-05
3.331072e-05
3.858015e-05
3.730394e-05
3.447240e-05
3.447241e-05
3.730394e-05
3.858015e-05
3.331072e-05
1.957321e-05
3.870128e-06
3.870127e-06
1.957321e-05
3.331072e-05
3.858015e-05
3.730394e-05
3.447241e-05
3.447241e-05
3.730394e-05
3.858015e-05
3.331072e-05
1.957321e-05
3.870127e-06
3.730282e-06
1.887513e-05
3.261825e-05
3.887200e-05
3.903691e-05
3.730394e-05
3.730394e-05
3.903691e-05
3.887200e-05
3.261825e-05
1.887513e-05
3.730282e-06
3.334530e-06
1.686579e-05
2.982030e-05
3.686501e-05
3.887200e-05
3.858015e-05
3.858015e-05
3.887200e-05
3.686502e-05
2.982031e-05
1.686580e-05
3.334530e-06
2.559573e-06
1.296331e-05
2.335543e-05
2.982031e-05
3.261825e-05
3.331072e-05
3.331072e-05
3.261825e-05
2.982031e-05
2.335544e-05
1.296332e-05
2.559573e-06
1.401575e-06
7.101272e-06
1.296331e-05
1.686579e-05
1.887513e-05
1.957321e-05
1.957321e-05
1.887513e-05
1.686579e-05
1.296332e-05
7.101272e-06
1.401575e-06
0.000000e+00
1.401575e-06
2.559573e-06
3.334529e-06
3.730281e-06
3.870126e-06
3.870128e-06
3.730281e-06
3.334529e-06
2.559573e-06
1.401575e-06
0.000000e+00
1.401575e-06
7.859755e-06
1.444200e-05
1.895909e-05
2.142671e-05
2.235303e-05
2.235303e-05
2.142671e-05
1.895909e-05
1.444200e-05
7.859753e-06
1.401574e-06
7.859755e-06
1.264737e-04
2.309678e-04
3.008976e-04
3.366090e-04
3.492283e-04
3.492281e-04
3.366090e-04
3.008976e-04
2.309679e-04
1.264738e-04
7.859753e-06
1.444200e-05
2.309679e-04
4.157595e-04
5.288065e-04
5.770703e-04
5.865048e-04
5.865049e-04
5.770703e-04
5.288064e-04
4.157595e-04
2.309679e-04
1.444200e-05
1.895909e-05
3.008976e-04
5.288064e-04
6.493187e-04
6.753479e-04
6.636095e-04
6.636095e-04
6.753480e-04
6.493187e-04
5.288064e-04
3.008976e-04
1.895909e-05
2.142671e-05
3.366090e-04
5.770703e-04
6.753479e-04
6.626035e-04
6.174053e-04
6.174052e-04
6.626036e-04
6.753480e-04
5.770703e-04
3.366091e-04
2.142671e-05
2.235303e-05
3.492282e-04
5.865048e-04
6.636095e-04
6.174053e-04
5.494303e-04
5.494303e-04
6.174052e-04
6.636095e-04
5.865049e-04
3.492282e-04
2.235303e-05
2.235303e-05
3.492282e-04
5.865049e-04
6.636094e-04
6.174052e-04
5.494302e-04
5.494303e-04
6.174052e-04
6.636095e-04
5.865049e-04
3.492282e-04
2.235303e-05
2.142671e-05
3.366090e-04
5.770703e-04
6.753480e-04
6.626035e-04
6.174052e-04
6.174053e-04
6.626035e-04
6.753480e-04
5.770703e-04
3.366090e-04
2.142671e-05
1.895909e-05
3.008975e-04
5.288066e-04
6.493187e-04
6.753480e-04
6.636094e-04
6.636095e-04
6.753480e-04
6.493188e-04
5.288065e-04
3.008976e-04
1.895909e-05
1.444201e-05
2.309679e-04
4.157597e-04
5.288064e-04
5.770703e-04
5.865049e-04
5.865048e-04
5.770703e-04
5.288065e-04
4.157601e-04
2.309679e-04
1.444201e-05
7.859754e-06
1.264737e-04
2.309679e-04
3.008976e-04
3.366091e-04
3.492281e-04
3.492282e-04
3.366092e-04
3.008976e-04
2.309679e-04
1.264738e-04
7.859755e-06
1.401575e-06
7.859755e-06
1.444200e-05
1.895909e-05
2.142671e-05
2.235303e-05
2.235303e-05
2.142671e-05
1.895909e-05
1.444201e-05
7.859755e-06
1.401575e-06
3.318056e-06
1.854138e-05
3.430737e-05
4.542763e-05
5.167746e-05
5.436561e-05
5.436562e-05
5.167745e-05
4.542762e-05
3.430737e-05
1.854138e-05
3.318055e-06
1.854138e-05
2.994110e-04
5.491921e-04
7.176989e-04
8.073170e-04
8.373476e-04
8.373475e-04
8.073170e-04
7.176988e-04
5.491921e-04
2.994110e-04
1.854138e-05
3.430737e-05
5.491922e-04
9.855146e-04
1.249141e-03
1.347940e-03
1.362250e-03
1.362250e-03
1.347940e-03
1.249140e-03
9.855147e-04
5.491922e-04
3.430737e-05
4.542763e-05
7.176988e-04
1.249140e-03
1.495428e-03
1.524988e-03
1.437956e-03
1.437956e-03
1.524988e-03
1.495428e-03
1.249140e-03
7.176988e-04
4.542763e-05
5.167745e-05
8.073170e-04
1.347940e-03
1.524988e-03
1.378723e-03
1.195711e-03
1.195711e-03
1.378723e-03
1.524988e-03
1.347940e-03
8.073170e-04
5.167746e-05
5.436562e-05
8.373476e-04
1.362250e-03
1.437956e-03
1.195711e-03
9.128465e-04
9.128466e-04
1.195711e-03
1.437956e-03
1.362250e-03
8.373476e-04
5.436562e-05
5.436561e-05
8.373476e-04
1.362250e-03
1.437956e-03
1.195711e-03
9.128466e-04
9.128466e-04
1.195711e-03
1.437956e-03
1.362250e-03
8.373476e-04
5.436561e-05
5.167745e-05
8.073168e-04
1.347940e-03
1.524988e-03
1.378723e-03
1.195711e-03
1.195711e-03
1.378723e-03
1.524988e-03
1.347940e-03
8.073170e-04
5.167746e-05
4.542763e-05
7.176990e-04
1.249140e-03
1.495428e-03
1.524988e-03
1.437956e-03
1.437956e-03
1.524988e-03
1.495428e-03
1.249141e-03
7.176991e-04
4.542764e-05
3.430738e-05
5.491924e-04
9.855150e-04
1.249141e-03
1.347940e-03
1.362250e-03
1.362250e-03
1.347940e-03
1.249141e-03
9.855154e-04
5.491928e-04
3.430739e-05
1.854138e-05
2.994110e-04
5.491924e-04
7.176989e-04
8.073170e-04
8.373475e-04
8.373476e-04
8.073170e-04
7.176991e-04
5.491928e-04
2.994110e-04
1.854139e-05
3.318055e-06
1.854138e-05
3.430738e-05
4.542763e-05
5.167746e-05
5.436561e-05
5.436562e-05
5.167746e-05
4.542765e-05
3.430738e-05
1.854139e-05
3.318055e-06
6.361253e-06
3.532819e-05
6.638338e-05
9.043417e-05
1.054607e-04
1.133543e-04
1.133543e-04
1.054607e-04
9.043417e-05
6.638339e-05
3.532819e-05
6.361252e-06
3.532819e-05
5.740196e-04
1.071038e-03
1.426862e-03
1.629839e-03
1.727703e-03
1.727703e-03
1.629839e-03
1.426862e-03
1.071038e-03
5.740196e-04
3.532819e-05
6.638338e-05
1.071038e-03
1.934571e-03
2.443186e-03
2.658543e-03
2.623598e-03
2.623598e-03
2.658544e-03
2.443185e-03
1.934572e-03
1.071038e-03
6.638339e-05
9.043417e-05
1.426862e-03
2.443185e-03
2.862459e-03
2.733323e-03
2.521879e-03
2.521879e-03
2.733323e-03
2.862459e-03
2.443186e-03
1.426862e-03
9.043417e-05
1.054607e-04
1.629839e-03
2.658543e-03
2.733323e-03
2.487148e-03
0.000000e+00
0.000000e+00
2.487148e-03
2.733323e-03
2.658544e-03
1.629839e-03
1.054607e-04
1.133543e-04
1.727703e-03
2.623598e-03
2.521879e-03
0.000000e+00
0.000000e+00
0.000000e+00
0.000000e+00
2.521879e-03
2.623598e-03
1.727703e-03
1.133543e-04
1.133543e-04
1.727703e-03
2.623598e-03
2.521879e-03
0.000000e+00
0.000000e+00
0.000000e+00
0.000000e+00
2.521879e-03
2.623598e-03
1.727703e-03
1.133543e-04
1.054607e-04
1.629839e-03
2.658543e-03
2.733323e-03
2.487148e-03
0.000000e+00
0.000000e+00
2.487148e-03
2.733323e-03
2.658545e-03
1.629839e-03
1.054607e-04
9.043417e-05
1.426862e-03
2.443185e-03
2.862459e-03
2.733323e-03
2.521879e-03
2.521879e-03
2.733323e-03
2.862459e-03
2.443186e-03
1.426862e-03
9.043417e-05
6.638339e-05
1.071038e-03
1.934572e-03
2.443186e-03
2.658543e-03
2.623598e-03
2.623598e-03
2.658544e-03
2.443186e-03
1.934572e-03
1.071038e-03
6.638339e-05
3.532819e-05
5.740196e-04
1.071038e-03
1.426862e-03
1.629839e-03
1.727703e-03
1.727703e-03
1.629839e-03
1.426862e-03
1.071038e-03
5.740197e-04
3.532819e-05
6.361252e-06
3.532819e-05
6.638338e-05
9.043417e-05
1.054607e-04
1.133543e-04
1.133543e-04
1.054607e-04
9.043418e-05
6.638340e-05
3.532819e-05
6.361253e-06
1.114479e-05
6.078379e-05
1.186306e-04
1.680541e-04
2.108440e-04
2.314728e-04
2.314728e-04
2.108441e-04
1.680541e-04
1.186306e-04
6.078381e-05
1.114479e-05
6.078379e-05
1.005671e-03
1.925480e-03
2.724035e-03
3.249627e-03
3.590505e-03
3.590505e-03
3.249627e-03
2.724035e-03
1.925480e-03
1.005671e-03
6.078381e-05
1.186306e-04
1.925480e-03
3.628657e-03
4.713629e-03
5.145026e-03
5.542755e-03
5.542755e-03
5.145028e-03
4.713629e-03
3.628658e-03
1.925480e-03
1.186306e-04
1.680541e-04
2.724035e-03
4.713629e-03
5.133408e-03
4.953985e-03
0.000000e+00
0.000000e+00
4.953985e-03
5.133409e-03
4.713629e-03
2.724035e-03
1.680541e-04
2.108440e-04
3.249628e-03
5.145026e-03
4.953985e-03
0.000000e+00
0.000000e+00
0.000000e+00
0.000000e+00
4.953985e-03
5.145027e-03
3.249627e-03
2.108441e-04
2.314728e-04
3.590505e-03
5.542755e-03
0.000000e+00
0.000000e+00
0.000000e+00
0.000000e+00
0.000000e+00
0.000000e+00
5.542755e-03
3.590505e-03
2.314728e-04
2.314728e-04
3.590505e-03
5.542755e-03
0.000000e+00
0.000000e+00
0.000000e+00
0.000000e+00
0.000000e+00
0.000000e+00
5.542755e-03
3.590506e-03
2.314728e-04
2.108440e-04
3.249628e-03
5.145026e-03
4.953985e-03
0.000000e+00
0.000000e+00
0.000000e+00
0.000000e+00
4.953986e-03
5.145028e-03
3.249627e-03
2.108441e-04
1.680541e-04
2.724035e-03
4.713629e-03
5.133408e-03
4.953985e-03
0.000000e+00
0.000000e+00
4.953985e-03
5.133410e-03
4.713629e-03
2.724035e-03
1.680541e-04
1.186306e-04
1.925480e-03
3.628657e-03
4.713630e-03
5.145026e-03
5.542755e-03
5.542755e-03
5.145028e-03
4.713630e-03
3.628658e-03
1.925480e-03
1.186306e-04
6.078379e-05
1.005671e-03
1.925480e-03
2.724035e-03
3.249628e-03
3.590505e-03
3.590506e-03
3.249628e-03
2.724035e-03
1.925480e-03
1.005671e-03
6.078381e-05
1.114479e-05
6.078379e-05
1.186306e-04
1.680541e-04
2.108440e-04
2.314728e-04
2.314728e-04
2.108440e-04
1.680541e-04
1.186306e-04
6.078381e-05
1.114479e-05
1.732338e-05
9.404038e-05
1.884922e-04
2.905179e-04
3.785627e-04
4.370610e-04
4.370610e-04
3.785628e-04
2.905179e-04
1.884922e-04
9.404040e-05
1.732339e-05
9.404038e-05
1.563208e-03
3.181072e-03
4.710345e-03
6.485865e-03
7.241808e-03
7.241807e-03
6.485865e-03
4.710344e-03
3.181073e-03
1.563208e-03
9.404040e-05
1.884922e-04
3.181072e-03
6.176219e-03
9.553852e-03
1.086427e-02
1.295908e-02
1.295908e-02
1.086427e-02
9.553852e-03
6.176224e-03
3.181073e-03
1.884922e-04
2.905179e-04
4.710344e-03
9.553851e-03
1.059774e-02
0.000000e+00
0.000000e+00
0.000000e+00
0.000000e+00
1.059774e-02
9.553852e-03
4.710344e-03
2.905179e-04
3.785627e-04
6.485865e-03
1.086427e-02
0.000000e+00
0.000000e+00
0.000000e+00
0.000000e+00
0.000000e+00
0.000000e+00
1.086427e-02
6.485865e-03
3.785628e-04
4.370610e-04
7.241807e-03
1.295908e-02
0.000000e+00
0.000000e+00
0.000000e+00
0.000000e+00
0.000000e+00
0.000000e+00
1.295908e-02
7.241808e-03
4.370610e-04
4.370610e-04
7.241807e-03
1.295908e-02
0.000000e+00
0.000000e+00
0.000000e+00
0.000000e+00
0.000000e+00
0.000000e+00
1.295908e-02
7.241809e-03
4.370610e-04
3.785628e-04
6.485866e-03
1.086427e-02
0.000000e+00
0.000000e+00
0.000000e+00
0.000000e+00
0.000000e+00
0.000000e+00
1.086427e-02
6.485865e-03
3.785628e-04
2.905179e-04
4.710345e-03
9.553852e-03
1.059774e-02
0.000000e+00
0.000000e+00
0.000000e+00
0.000000e+00
1.059774e-02
9.553853e-03
4.710346e-03
2.905180e-04
1.884922e-04
3.181072e-03
6.176218e-03
9.553852e-03
1.086427e-02
1.295908e-02
1.295908e-02
1.086427e-02
9.553852e-03
6.176224e-03
3.181074e-03
1.884923e-04
9.404038e-05
1.563208e-03
3.181072e-03
4.710345e-03
6.485865e-03
7.241808e-03
7.241808e-03
6.485865e-03
4.710345e-03
3.181074e-03
1.563208e-03
9.404040e-05
1.732338e-05
9.404038e-05
1.884922e-04
2.905179e-04
3.785627e-04
4.370610e-04
4.370610e-04
3.785628e-04
2.905180e-04
1.884923e-04
9.404040e-05
1.732339e-05
2.314418e-05
1.227586e-04
2.576552e-04
4.015304e-04
5.517541e-04
6.422687e-04
6.422687e-04
5.517542e-04
4.015304e-04
2.576552e-04
1.227586e-04
2.314418e-05
1.227586e-04
2.088459e-03
4.311203e-03
7.163028e-03
9.786150e-03
1.187938e-02
1.187938e-02
9.786150e-03
7.163028e-03
4.311204e-03
2.088459e-03
1.227586e-04
2.576552e-04
4.311203e-03
9.393736e-03
1.430149e-02
2.695404e-02
2.884739e-02
2.884739e-02
2.695404e-02
1.430149e-02
9.393737e-03
4.311204e-03
2.576552e-04
4.015304e-04
7.163029e-03
1.430149e-02
3.006751e-02
0.000000e+00
0.000000e+00
0.000000e+00
0.000000e+00
3.006751e-02
1.430149e-02
7.163028e-03
4.015304e-04
5.517541e-04
9.786150e-03
2.695404e-02
0.000000e+00
0.000000e+00
0.000000e+00
0.000000e+00
0.000000e+00
0.000000e+00
2.695404e-02
9.786150e-03
5.517542e-04
6.422687e-04
1.187938e-02
2.884739e-02
0.000000e+00
0.000000e+00
0.000000e+00
0.000000e+00
0.000000e+00
0.000000e+00
2.884739e-02
1.187938e-02
6.422687e-04
6.422687e-04
1.187938e-02
2.884739e-02
0.000000e+00
0.000000e+00
0.000000e+00
0.000000e+00
0.000000e+00
0.000000e+00
2.884739e-02
1.187938e-02
6.422688e-04
5.517542e-04
9.786150e-03
2.695404e-02
0.000000e+00
0.000000e+00
0.000000e+00
0.000000e+00
0.000000e+00
0.000000e+00
2.695404e-02
9.786151e-03
5.517543e-04
4.015304e-04
7.163028e-03
1.430149e-02
3.006751e-02
0.000000e+00
0.000000e+00
0.000000e+00
0.000000e+00
3.006751e-02
1.430149e-02
7.163030e-03
4.015306e-04
2.576552e-04
4.311204e-03
9.393736e-03
1.430149e-02
2.695404e-02
2.884739e-02
2.884739e-02
2.695404e-02
1.430149e-02
9.393737e-03
4.311204e-03
2.576553e-04
1.227586e-04
2.088459e-03
4.311204e-03
7.163028e-03
9.786150e-03
1.187938e-02
1.187938e-02
9.786151e-03
7.163031e-03
4.311204e-03
2.088459e-03
1.227586e-04
2.314418e-05
1.227586e-04
2.576552e-04
4.015304e-04
5.517541e-04
6.422687e-04
6.422687e-04
5.517543e-04
4.015305e-04
2.576553e-04
1.227586e-04
2.314418e-05
2.492790e-05
1.326586e-04
2.728818e-04
4.313245e-04
5.785689e-04
6.811818e-04
6.811818e-04
5.785689e-04
4.313246e-04
2.728818e-04
1.326586e-04
2.492789e-05
1.326586e-04
2.249415e-03
4.720480e-03
7.295110e-03
1.042060e-02
1.224901e-02
1.224901e-02
1.042060e-02
7.295110e-03
4.720482e-03
2.249416e-03
1.326586e-04
2.728818e-04
4.720480e-03
1.016635e-02
1.669364e-02
2.089005e-02
3.026335e-02
3.026335e-02
2.089005e-02
1.669364e-02
1.016635e-02
4.720482e-03
2.728818e-04
4.313245e-04
7.295110e-03
1.669364e-02
3.078180e-02
3.651296e-02
0.000000e+00
0.000000e+00
3.651295e-02
3.078181e-02
1.669364e-02
7.295110e-03
4.313245e-04
5.785689e-04
1.042060e-02
2.089005e-02
3.651296e-02
0.000000e+00
0.000000e+00
0.000000e+00
0.000000e+00
3.651295e-02
2.089005e-02
1.042060e-02
5.785689e-04
6.811818e-04
1.224901e-02
3.026334e-02
0.000000e+00
0.000000e+00
0.000000e+00
0.000000e+00
0.000000e+00
0.000000e+00
3.026335e-02
1.224901e-02
6.811818e-04
6.811818e-04
1.224901e-02
3.026335e-02
0.000000e+00
0.000000e+00
0.000000e+00
0.000000e+00
0.000000e+00
0.000000e+00
3.026335e-02
1.224901e-02
6.811818e-04
5.785689e-04
1.042060e-02
2.089005e-02
3.651296e-02
0.000000e+00
0.000000e+00
0.000000e+00
0.000000e+00
3.651296e-02
2.089005e-02
1.042060e-02
5.785689e-04
4.313246e-04
7.295110e-03
1.669364e-02
3.078179e-02
3.651295e-02
0.000000e+00
0.000000e+00
3.651296e-02
3.078181e-02
1.669364e-02
7.295111e-03
4.313246e-04
2.728818e-04
4.720482e-03
1.016635e-02
1.669364e-02
2.089005e-02
3.026335e-02
3.026334e-02
2.089005e-02
1.669364e-02
1.016635e-02
4.720483e-03
2.728819e-04
1.326586e-04
2.249416e-03
4.720482e-03
7.295110e-03
1.042060e-02
1.224901e-02
1.224901e-02
1.042060e-02
7.295111e-03
4.720483e-03
2.249416e-03
1.326587e-04
2.492789e-05
1.326586e-04
2.728818e-04
4.313245e-04
5.785689e-04
6.811817e-04
6.811817e-04
5.785690e-04
4.313246e-04
2.728819e-04
1.326587e-04
2.492789e-05
2.194899e-05
1.170372e-04
2.401933e-04
3.633226e-04
4.808803e-04
5.517119e-04
5.517119e-04
4.808803e-04
3.633226e-04
2.401934e-04
1.170372e-04
2.194900e-05
1.170372e-04
1.980609e-03
4.092511e-03
6.300433e-03
8.141034e-03
9.596016e-03
9.596016e-03
8.141034e-03
6.300433e-03
4.092510e-03
1.980610e-03
1.170372e-04
2.401933e-04
4.092510e-03
8.600020e-03
1.369221e-02
1.801217e-02
1.974441e-02
1.974441e-02
1.801217e-02
1.369221e-02
8.600020e-03
4.092510e-03
2.401934e-04
3.633226e-04
6.300433e-03
1.369221e-02
2.181706e-02
3.179974e-02
3.410349e-02
3.410349e-02
3.179974e-02
2.181706e-02
1.369221e-02
6.300433e-03
3.633226e-04
4.808803e-04
8.141034e-03
1.801217e-02
3.179974e-02
3.722126e-02
0.000000e+00
0.000000e+00
3.722125e-02
3.179973e-02
1.801216e-02
8.141034e-03
4.808803e-04
5.517119e-04
9.596016e-03
1.974441e-02
3.410349e-02
0.000000e+00
0.000000e+00
0.000000e+00
0.000000e+00
3.410349e-02
1.974441e-02
9.596014e-03
5.517119e-04
5.517119e-04
9.596016e-03
1.974441e-02
3.410349e-02
0.000000e+00
0.000000e+00
0.000000e+00
0.000000e+00
3.410349e-02
1.974441e-02
9.596014e-03
5.517119e-04
4.808803e-04
8.141034e-03
1.801217e-02
3.179973e-02
3.722125e-02
0.000000e+00
0.000000e+00
3.722126e-02
3.179974e-02
1.801216e-02
8.141034e-03
4.808802e-04
3.633226e-04
6.300433e-03
1.369221e-02
2.181706e-02
3.179973e-02
3.410349e-02
3.410349e-02
3.179974e-02
2.181706e-02
1.369221e-02
6.300433e-03
3.633226e-04
2.401934e-04
4.092510e-03
8.600020e-03
1.369221e-02
1.801217e-02
1.974441e-02
1.974441e-02
1.801216e-02
1.369221e-02
8.600018e-03
4.092510e-03
2.401934e-04
1.170372e-04
1.980609e-03
4.092510e-03
6.300434e-03
8.141034e-03
9.596014e-03
9.596014e-03
8.141035e-03
6.300433e-03
4.092510e-03
1.980610e-03
1.170372e-04
2.194900e-05
1.170372e-04
2.401934e-04
3.633226e-04
4.808803e-04
5.517119e-04
5.517119e-04
4.808803e-04
3.633226e-04
2.401934e-04
1.170372e-04
2.194900e-05
1.571580e-05
8.420138e-05
1.706851e-04
2.556554e-04
3.251164e-04
3.686340e-04
3.686340e-04
3.251164e-04
2.556554e-04
1.706851e-04
8.420141e-05
1.571580e-05
8.420138e-05
1.418145e-03
2.885096e-03
4.346289e-03
5.562932e-03
6.227893e-03
6.227893e-03
5.562932e-03
4.346289e-03
2.885097e-03
1.418145e-03
8.420141e-05
1.706851e-04
2.885096e-03
5.946946e-03
9.043263e-03
1.176833e-02
1.308150e-02
1.308150e-02
1.176833e-02
9.043262e-03
5.946946e-03
2.885097e-03
1.706851e-04
2.556554e-04
4.346289e-03
9.043263e-03
1.421058e-02
1.850792e-02
2.019104e-02
2.019104e-02
1.850792e-02
1.421057e-02
9.043263e-03
4.346289e-03
2.556554e-04
3.251164e-04
5.562933e-03
1.176833e-02
1.850792e-02
2.270184e-02
3.158445e-02
3.158445e-02
2.270184e-02
1.850792e-02
1.176833e-02
5.562931e-03
3.251164e-04
3.686341e-04
6.227893e-03
1.308150e-02
2.019104e-02
3.158445e-02
3.419560e-02
3.419560e-02
3.158445e-02
2.019104e-02
1.308150e-02
6.227893e-03
3.686340e-04
3.686340e-04
6.227893e-03
1.308150e-02
2.019104e-02
3.158445e-02
3.419560e-02
3.419560e-02
3.158445e-02
2.019104e-02
1.308150e-02
6.227893e-03
3.686340e-04
3.251164e-04
5.562932e-03
1.176833e-02
1.850793e-02
2.270184e-02
3.158445e-02
3.158445e-02
2.270184e-02
1.850793e-02
1.176833e-02
5.562931e-03
3.251164e-04
2.556554e-04
4.346289e-03
9.043263e-03
1.421058e-02
1.850793e-02
2.019104e-02
2.019104e-02
1.850793e-02
1.421058e-02
9.043264e-03
4.346289e-03
2.556554e-04
1.706851e-04
2.885097e-03
5.946946e-03
9.043263e-03
1.176833e-02
1.308150e-02
1.308150e-02
1.176833e-02
9.043263e-03
5.946944e-03
2.885097e-03
1.706851e-04
8.420141e-05
1.418145e-03
2.885097e-03
4.346289e-03
5.562931e-03
6.227893e-03
6.227894e-03
5.562931e-03
4.346289e-03
2.885097e-03
1.418145e-03
8.420141e-05
1.571580e-05
8.420141e-05
1.706851e-04
2.556554e-04
3.251164e-04
3.686340e-04
3.686340e-04
3.251164e-04
2.556554e-04
1.706851e-04
8.420141e-05
1.571580e-05
8.054431e-06
4.334156e-05
8.708447e-05
1.290116e-04
1.629457e-04
1.816838e-04
1.816838e-04
1.629457e-04
1.290116e-04
8.708448e-05
4.334156e-05
8.054431e-06
4.334156e-05
7.268069e-04
1.465002e-03
2.174503e-03
2.755103e-03
3.069979e-03
3.069979e-03
2.755104e-03
2.174503e-03
1.465002e-03
7.268069e-04
4.334156e-05
8.708447e-05
1.465002e-03
2.969424e-03
4.451998e-03
5.673837e-03
6.336527e-03
6.336528e-03
5.673837e-03
4.451998e-03
2.969424e-03
1.465002e-03
8.708448e-05
1.290116e-04
2.174503e-03
4.451998e-03
6.750869e-03
8.621348e-03
1.005025e-02
1.005025e-02
8.621348e-03
6.750868e-03
4.451998e-03
2.174503e-03
1.290116e-04
1.629458e-04
2.755104e-03
5.673837e-03
8.621348e-03
1.180004e-02
1.368279e-02
1.368279e-02
1.180004e-02
8.621348e-03
5.673837e-03
2.755103e-03
1.629457e-04
1.816838e-04
3.069979e-03
6.336527e-03
1.005025e-02
1.368279e-02
1.599501e-02
1.599501e-02
1.368279e-02
1.005025e-02
6.336528e-03
3.069979e-03
1.816838e-04
1.816838e-04
3.069980e-03
6.336528e-03
1.005025e-02
1.368279e-02
1.599501e-02
1.599501e-02
1.368279e-02
1.005025e-02
6.336527e-03
3.069979e-03
1.816838e-04
1.629457e-04
2.755104e-03
5.673837e-03
8.621348e-03
1.180004e-02
1.368279e-02
1.368279e-02
1.180004e-02
8.621348e-03
5.673837e-03
2.755104e-03
1.629457e-04
1.290116e-04
2.174503e-03
4.451998e-03
6.750869e-03
8.621348e-03
1.005025e-02
1.005025e-02
8.621348e-03
6.750869e-03
4.451998e-03
2.174504e-03
1.290116e-04
8.708450e-05
1.465003e-03
2.969424e-03
4.451998e-03
5.673837e-03
6.336528e-03
6.336527e-03
5.673837e-03
4.451998e-03
2.969424e-03
1.465003e-03
8.708450e-05
4.334156e-05
7.268069e-04
1.465002e-03
2.174503e-03
2.755104e-03
3.069980e-03
3.069979e-03
2.755103e-03
2.174503e-03
1.465002e-03
7.268069e-04
4.334156e-05
8.054431e-06
4.334156e-05
8.708448e-05
1.290116e-04
1.629457e-04
1.816838e-04
1.816838e-04
1.629457e-04
1.290116e-04
8.708448e-05
4.334156e-05
8.054431e-06
0.000000e+00
8.054431e-06
1.623507e-05
2.409772e-05
3.053189e-05
3.402133e-05
3.402133e-05
3.053189e-05
2.409771e-05
1.623507e-05
8.054431e-06
0.000000e+00
8.054431e-06
4.386083e-05
8.801899e-05
1.301831e-04
1.641748e-04
1.828877e-04
1.828877e-04
1.641748e-04
1.301830e-04
8.801898e-05
4.386083e-05
8.054431e-06
1.623507e-05
8.801899e-05
1.776812e-04
2.644673e-04
3.345527e-04
3.778033e-04
3.778033e-04
3.345527e-04
2.644673e-04
1.776812e-04
8.801899e-05
1.623507e-05
2.409772e-05
1.301831e-04
2.644673e-04
3.955573e-04
5.149493e-04
5.862804e-04
5.862804e-04
5.149493e-04
3.955573e-04
2.644673e-04
1.301830e-04
2.409771e-05
3.053189e-05
1.641748e-04
3.345527e-04
5.149493e-04
6.792793e-04
7.854713e-04
7.854713e-04
6.792793e-04
5.149493e-04
3.345527e-04
1.641748e-04
3.053189e-05
3.402132e-05
1.828877e-04
3.778033e-04
5.862804e-04
7.854713e-04
9.084530e-04
9.084530e-04
7.854713e-04
5.862804e-04
3.778033e-04
1.828877e-04
3.402133e-05
3.402133e-05
1.828877e-04
3.778033e-04
5.862805e-04
7.854713e-04
9.084530e-04
9.084530e-04
7.854713e-04
5.862805e-04
3.778033e-04
1.828877e-04
3.402133e-05
3.053189e-05
1.641748e-04
3.345527e-04
5.149493e-04
6.792793e-04
7.854713e-04
7.854713e-04
6.792793e-04
5.149493e-04
3.345527e-04
1.641748e-04
3.053189e-05
2.409771e-05
1.301831e-04
2.644673e-04
3.955573e-04
5.149493e-04
5.862805e-04
5.862805e-04
5.149493e-04
3.955573e-04
2.644673e-04
1.301831e-04
2.409772e-05
1.623508e-05
8.801900e-05
1.776812e-04
2.644673e-04
3.345527e-04
3.778034e-04
3.778034e-04
3.345527e-04
2.644673e-04
1.776812e-04
8.801901e-05
1.623508e-05
8.054431e-06
4.386083e-05
8.801898e-05
1.301831e-04
1.641748e-04
1.828877e-04
1.828877e-04
1.641748e-04
1.301830e-04
8.801898e-05
4.386083e-05
8.054431e-06
0.000000e+00
8.054431e-06
1.623507e-05
2.409771e-05
3.053189e-05
3.402133e-05
3.402132e-05
3.053189e-05
2.409771e-05
1.623507e-05
8.054431e-06
0.000000e+00
