# vtk DataFile Version 2.0
mass_flux
ASCII

DATASET STRUCTURED_POINTS
DIMENSIONS 12 12 12
ORIGIN 0.500000 0.500000 0.500000
SPACING 1.000000 1.000000 1.000000

POINT_DATA 1728
SCALARS mass_flux float 3
LOOKUP_TABLE default
-1.164120e-04 -1.164110e-04 1.294544e-03
-2.717303e-04 -1.555463e-04 1.291495e-03
-3.044498e-04 -1.795968e-04 1.329009e-03
-2.556536e-04 -2.027437e-04 1.388519e-03
-1.481061e-04 -2.188003e-04 1.426052e-03
-4.158383e-05 -2.339614e-04 1.435183e-03
4.158178e-05 -2.339632e-04 1.435182e-03
1.481100e-04 -2.188010e-04 1.426053e-03
2.556574e-04 -2.027406e-04 1.388521e-03
3.044473e-04 -1.795943e-04 1.329013e-03
2.717296e-04 -1.555472e-04 1.291495e-03
1.164129e-04 -1.164110e-04 1.294544e-03
-1.555487e-04 -2.717290e-04 1.291493e-03
-3.388132e-04 -3.388121e-04 1.266892e-03
-3.549762e-04 -3.969692e-04 1.298474e-03
-2.943148e-04 -4.508572e-04 1.357272e-03
-1.719463e-04 -4.920067e-04 1.397544e-03
-4.934410e-05 -5.328887e-04 1.395499e-03
4.934076e-05 -5.328889e-04 1.395497e-03
1.719489e-04 -4.920049e-04 1.397542e-03
2.943189e-04 -4.508592e-04 1.357270e-03
3.549746e-04 -3.969684e-04 1.298472e-03
3.388128e-04 -3.388128e-04 1.266892e-03
1.555488e-04 -2.717301e-04 1.291494e-03
-1.795970e-04 -3.044488e-04 1.329011e-03
-3.969709e-04 -3.549808e-04 1.298473e-03
-4.209746e-04 -4.209761e-04 1.336276e-03
-3.487182e-04 -4.854801e-04 1.417672e-03
-2.057140e-04 -5.463906e-04 1.457852e-03
-6.060045e-05 -6.011567e-04 1.461843e-03
6.059775e-05 -6.011577e-04 1.461841e-03
2.057178e-04 -5.463886e-04 1.457851e-03
3.487197e-04 -4.854827e-04 1.417669e-03
4.209717e-04 -4.209754e-04 1.336275e-03
3.969687e-04 -3.549806e-04 1.298471e-03
1.795998e-04 -3.044490e-04 1.329010e-03
-2.027454e-04 -2.556569e-04 1.388521e-03
-4.508586e-04 -2.943206e-04 1.357271e-03
-4.854798e-04 -3.487207e-04 1.417671e-03
-4.145454e-04 -4.145448e-04 1.516104e-03
-2.525270e-04 -4.857668e-04 1.565334e-03
-7.534980e-05 -5.309460e-04 1.602861e-03
7.534770e-05 -5.309436e-04 1.602855e-03
2.525280e-04 -4.857658e-04 1.565330e-03
4.145443e-04 -4.145415e-04 1.516104e-03
4.854808e-04 -3.487202e-04 1.417669e-03
4.508595e-04 -2.943170e-04 1.357271e-03
2.027452e-04 -2.556552e-04 1.388521e-03
-2.188058e-04 -1.481094e-04 1.426052e-03
-4.920045e-04 -1.719451e-04 1.397537e-03
-5.463857e-04 -2.057163e-04 1.457848e-03
-4.857643e-04 -2.525304e-04 1.565336e-03
-3.047376e-04 -3.047358e-04 1.653191e-03
-9.215615e-05 -3.283434e-04 1.700973e-03
9.215737e-05 -3.283403e-04 1.700974e-03
3.047404e-04 -3.047364e-04 1.653192e-03
4.857659e-04 -2.525272e-04 1.565335e-03
5.463879e-04 -2.057193e-04 1.457855e-03
4.920037e-04 -1.719442e-04 1.397541e-03
2.187991e-04 -1.481087e-04 1.426053e-03
-2.339615e-04 -4.158325e-05 1.435182e-03
-5.328884e-04 -4.934101e-05 1.395496e-03
-6.011591e-04 -6.059948e-05 1.461839e-03
-5.309400e-04 -7.534889e-05 1.602855e-03
-3.283392e-04 -9.215208e-05 1.700971e-03
-9.963314e-05 -9.962940e-05 1.704102e-03
9.963313e-05 -9.963050e-05 1.704101e-03
3.283399e-04 -9.215327e-05 1.700969e-03
5.309407e-04 -7.535032e-05 1.602856e-03
6.011585e-04 -6.060112e-05 1.461837e-03
5.328890e-04 -4.934239e-05 1.395498e-03
2.339625e-04 -4.158300e-05 1.435183e-03
-2.339630e-04 4.158148e-05 1.435182e-03
-5.328881e-04 4.934024e-05 1.395497e-03
-6.011568e-04 6.059701e-05 1.461838e-03
-5.309398e-04 7.535086e-05 1.602856e-03
-3.283412e-04 9.215122e-05 1.700972e-03
-9.963493e-05 9.962828e-05 1.704102e-03
9.963363e-05 9.962954e-05 1.704101e-03
3.283418e-04 9.215374e-05 1.700970e-03
5.309429e-04 7.535201e-05 1.602857e-03
6.011590e-04 6.060035e-05 1.461837e-03
5.328888e-04 4.934318e-05 1.395497e-03
2.339628e-04 4.158338e-05 1.435183e-03
-2.188012e-04 1.481090e-04 1.426053e-03
-4.920029e-04 1.719491e-04 1.397542e-03
-5.463856e-04 2.057190e-04 1.457848e-03
-4.857657e-04 2.525284e-04 1.565332e-03
-3.047408e-04 3.047356e-04 1.653191e-03
-9.215470e-05 3.283403e-04 1.700974e-03
9.215758e-05 3.283405e-04 1.700977e-03
3.047399e-04 3.047376e-04 1.653196e-03
4.857663e-04 2.525295e-04 1.565338e-03
5.463858e-04 2.057189e-04 1.457851e-03
4.920053e-04 1.719473e-04 1.397541e-03
2.188038e-04 1.481071e-04 1.426052e-03
-2.027394e-04 2.556566e-04 1.388519e-03
-4.508546e-04 2.943209e-04 1.357267e-03
-4.854829e-04 3.487229e-04 1.417665e-03
-4.145444e-04 4.145450e-04 1.516097e-03
-2.525263e-04 4.857673e-04 1.565329e-03
-7.534996e-05 5.309440e-04 1.602853e-03
7.535169e-05 5.309454e-04 1.602858e-03
2.525300e-04 4.857660e-04 1.565335e-03
4.145468e-04 4.145413e-04 1.516112e-03
4.854822e-04 3.487229e-04 1.417679e-03
4.508541e-04 2.943186e-04 1.357275e-03
2.027419e-04 2.556526e-04 1.388518e-03
-1.795912e-04 3.044485e-04 1.329005e-03
-3.969665e-04 3.549748e-04 1.298471e-03
-4.209750e-04 4.209745e-04 1.336266e-03
-3.487200e-04 4.854809e-04 1.417662e-03
-2.057200e-04 5.463895e-04 1.457846e-03
-6.059962e-05 6.011587e-04 1.461836e-03
6.060534e-05 6.011612e-04 1.461838e-03
2.057168e-04 5.463900e-04 1.457855e-03
3.487197e-04 4.854817e-04 1.417673e-03
4.209775e-04 4.209757e-04 1.336282e-03
3.969661e-04 3.549780e-04 1.298478e-03
1.795961e-04 3.044507e-04 1.329008e-03
-1.555488e-04 2.717305e-04 1.291495e-03
-3.388088e-04 3.388112e-04 1.266887e-03
-3.549764e-04 3.969685e-04 1.298470e-03
-2.943179e-04 4.508565e-04 1.357268e-03
-1.719454e-04 4.920052e-04 1.397541e-03
-4.934325e-05 5.328911e-04 1.395497e-03
4.934546e-05 5.328891e-04 1.395499e-03
1.719471e-04 4.920059e-04 1.397539e-03
2.943159e-04 4.508593e-04 1.357267e-03
3.549783e-04 3.969686e-04 1.298473e-03
3.388137e-04 3.388128e-04 1.266894e-03
1.555478e-04 2.717332e-04 1.291494e-03
-1.164120e-04 1.164125e-04 1.294543e-03
-2.717290e-04 1.555486e-04 1.291494e-03
-3.044479e-04 1.795944e-04 1.329009e-03
-2.556547e-04 2.027407e-04 1.388519e-03
-1.481074e-04 2.188020e-04 1.426052e-03
-4.158289e-05 2.339636e-04 1.435181e-03
4.158573e-05 2.339605e-04 1.435183e-03
1.481090e-04 2.188009e-04 1.426052e-03
2.556531e-04 2.027427e-04 1.388520e-03
3.044487e-04 1.795975e-04 1.329012e-03
2.717306e-04 1.555483e-04 1.291496e-03
1.164125e-04 1.164124e-04 1.294544e-03
-1.431036e-04 -1.431014e-04 1.094115e-03
-3.082897e-04 -1.960670e-04 1.053275e-03
-3.171464e-04 -2.346437e-04 1.049653e-03
-2.608496e-04 -2.518364e-04 1.065410e-03
-1.541457e-04 -2.678305e-04 1.075852e-03
-4.525671e-05 -2.853633e-04 1.068105e-03
4.525634e-05 -2.853610e-04 1.068104e-03
1.541478e-04 -2.678328e-04 1.075854e-03
2.608513e-04 -2.518381e-04 1.065408e-03
3.171462e-04 -2.346451e-04 1.049653e-03
3.082894e-04 -1.960666e-04 1.053276e-03
1.431032e-04 -1.431018e-04 1.094115e-03
-1.960681e-04 -3.082895e-04 1.053274e-03
-3.942205e-04 -3.942216e-04 1.011027e-03
-3.713516e-04 -4.665601e-04 9.953981e-04
-2.974661e-04 -5.058110e-04 1.015404e-03
-1.822191e-04 -5.500534e-04 1.021092e-03
-5.795688e-05 -5.868190e-04 1.013498e-03
5.795379e-05 -5.868252e-04 1.013498e-03
1.822234e-04 -5.500552e-04 1.021096e-03
2.974642e-04 -5.058098e-04 1.015398e-03
3.713498e-04 -4.665593e-04 9.953952e-04
3.942215e-04 -3.942208e-04 1.011028e-03
1.960703e-04 -3.082904e-04 1.053274e-03
-2.346468e-04 -3.171472e-04 1.049657e-03
-4.665590e-04 -3.713550e-04 9.953973e-04
-4.343020e-04 -4.343047e-04 9.893184e-04
-3.534424e-04 -4.887409e-04 1.010867e-03
-2.268879e-04 -5.510352e-04 1.010314e-03
-7.584090e-05 -5.977598e-04 1.002600e-03
7.583758e-05 -5.977672e-04 1.002597e-03
2.268912e-04 -5.510379e-04 1.010312e-03
3.534400e-04 -4.887389e-04 1.010867e-03
4.343034e-04 -4.343050e-04 9.893153e-04
4.665585e-04 -3.713543e-04 9.954016e-04
2.346475e-04 -3.171484e-04 1.049658e-03
-2.518446e-04 -2.608542e-04 1.065411e-03
-5.058118e-04 -2.974678e-04 1.015404e-03
-4.887339e-04 -3.534389e-04 1.010868e-03
-4.175165e-04 -4.175204e-04 1.027887e-03
-2.808980e-04 -4.919027e-04 1.023504e-03
-9.815511e-05 -5.521433e-04 1.005660e-03
9.814012e-05 -5.521341e-04 1.005650e-03
2.809046e-04 -4.918953e-04 1.023502e-03
4.175248e-04 -4.175208e-04 1.027890e-03
4.887354e-04 -3.534375e-04 1.010867e-03
5.058113e-04 -2.974640e-04 1.015405e-03
2.518423e-04 -2.608501e-04 1.065414e-03
-2.678336e-04 -1.541486e-04 1.075853e-03
-5.500527e-04 -1.822243e-04 1.021099e-03
-5.510373e-04 -2.268975e-04 1.010316e-03
-4.919005e-04 -2.809057e-04 1.023504e-03
-3.514215e-04 -3.514235e-04 1.007918e-03
-1.283393e-04 -3.989171e-04 9.709490e-04
1.283412e-04 -3.989125e-04 9.709514e-04
3.514267e-04 -3.514196e-04 1.007918e-03
4.918959e-04 -2.809041e-04 1.023505e-03
5.510360e-04 -2.268920e-04 1.010316e-03
5.500546e-04 -1.822226e-04 1.021099e-03
2.678292e-04 -1.541466e-04 1.075853e-03
-2.853666e-04 -4.525441e-05 1.068103e-03
-5.868253e-04 -5.795879e-05 1.013494e-03
-5.977644e-04 -7.584415e-05 1.002596e-03
-5.521272e-04 -9.815076e-05 1.005654e-03
-3.989123e-04 -1.283341e-04 9.709526e-04
-1.430886e-04 -1.430789e-04 9.110541e-04
1.430880e-04 -1.430836e-04 9.110534e-04
3.989149e-04 -1.283404e-04 9.709520e-04
5.521299e-04 -9.815103e-05 1.005657e-03
5.977668e-04 -7.584614e-05 1.002597e-03
5.868262e-04 -5.795900e-05 1.013499e-03
2.853601e-04 -4.525628e-05 1.068105e-03
-2.853631e-04 4.525659e-05 1.068104e-03
-5.868254e-04 5.795847e-05 1.013497e-03
-5.977650e-04 7.584699e-05 1.002595e-03
-5.521276e-04 9.814755e-05 1.005652e-03
-3.989114e-04 1.283360e-04 9.709535e-04
-1.430859e-04 1.430817e-04 9.110557e-04
1.430851e-04 1.430869e-04 9.110558e-04
3.989121e-04 1.283393e-04 9.709495e-04
5.521288e-04 9.815126e-05 1.005655e-03
5.977635e-04 7.584445e-05 1.002599e-03
5.868273e-04 5.795371e-05 1.013494e-03
2.853647e-04 4.525473e-05 1.068103e-03
-2.678277e-04 1.541451e-04 1.075855e-03
-5.500513e-04 1.822238e-04 1.021095e-03
-5.510404e-04 2.268945e-04 1.010316e-03
-4.918962e-04 2.809012e-04 1.023503e-03
-3.514210e-04 3.514197e-04 1.007916e-03
-1.283377e-04 3.989085e-04 9.709519e-04
1.283413e-04 3.989120e-04 9.709522e-04
3.514221e-04 3.514226e-04 1.007916e-03
4.919006e-04 2.809108e-04 1.023505e-03
5.510377e-04 2.269002e-04 1.010315e-03
5.500500e-04 1.822255e-04 1.021094e-03
2.678281e-04 1.541461e-04 1.075852e-03
-2.518350e-04 2.608475e-04 1.065407e-03
-5.058075e-04 2.974616e-04 1.015394e-03
-4.887413e-04 3.534360e-04 1.010861e-03
-4.175232e-04 4.175231e-04 1.027884e-03
-2.809067e-04 4.918969e-04 1.023502e-03
-9.814963e-05 5.521303e-04 1.005647e-03
9.815789e-05 5.521298e-04 1.005649e-03
2.809108e-04 4.919006e-04 1.023504e-03
4.175242e-04 4.175212e-04 1.027887e-03
4.887399e-04 3.534444e-04 1.010868e-03
5.058051e-04 2.974723e-04 1.015402e-03
2.518330e-04 2.608518e-04 1.065411e-03
-2.346444e-04 3.171503e-04 1.049652e-03
-4.665597e-04 3.713568e-04 9.953922e-04
-4.343015e-04 4.343008e-04 9.893050e-04
-3.534358e-04 4.887413e-04 1.010865e-03
-2.268944e-04 5.510397e-04 1.010313e-03
-7.584355e-05 5.977685e-04 1.002594e-03
7.585111e-05 5.977666e-04 1.002597e-03
2.268939e-04 5.510404e-04 1.010313e-03
3.534405e-04 4.887289e-04 1.010866e-03
4.343087e-04 4.342990e-04 9.893124e-04
4.665523e-04 3.713551e-04 9.954012e-04
2.346405e-04 3.171485e-04 1.049653e-03
-1.960668e-04 3.082936e-04 1.053277e-03
-3.942230e-04 3.942264e-04 1.011025e-03
-3.713515e-04 4.665620e-04 9.953961e-04
-2.974611e-04 5.058120e-04 1.015400e-03
-1.822239e-04 5.500563e-04 1.021095e-03
-5.795562e-05 5.868292e-04 1.013496e-03
5.796140e-05 5.868250e-04 1.013496e-03
1.822197e-04 5.500522e-04 1.021095e-03
2.974651e-04 5.058117e-04 1.015401e-03
3.713589e-04 4.665554e-04 9.954004e-04
3.942195e-04 3.942199e-04 1.011028e-03
1.960643e-04 3.082915e-04 1.053277e-03
-1.431036e-04 1.431031e-04 1.094115e-03
-3.082891e-04 1.960670e-04 1.053276e-03
-3.171480e-04 2.346476e-04 1.049652e-03
-2.608501e-04 2.518385e-04 1.065411e-03
-1.541448e-04 2.678308e-04 1.075853e-03
-4.525647e-05 2.853650e-04 1.068103e-03
4.525560e-05 2.853650e-04 1.068103e-03
1.541483e-04 2.678299e-04 1.075852e-03
2.608537e-04 2.518440e-04 1.065411e-03
3.171469e-04 2.346465e-04 1.049654e-03
3.082897e-04 1.960648e-04 1.053277e-03
1.431028e-04 1.431035e-04 1.094115e-03
-1.521661e-04 -1.521627e-04 9.128878e-04
-3.252788e-04 -2.110080e-04 8.752003e-04
-3.304361e-04 -2.465331e-04 8.394292e-04
-2.697422e-04 -2.402172e-04 8.188533e-04
-1.598279e-04 -2.444373e-04 8.042155e-04
-4.741084e-05 -2.542291e-04 7.832991e-04
4.741010e-05 -2.542349e-04 7.832972e-04
1.598319e-04 -2.444389e-04 8.042141e-04
2.697416e-04 -2.402192e-04 8.188535e-04
3.304348e-04 -2.465330e-04 8.394244e-04
3.252801e-04 -2.110104e-04 8.751978e-04
1.521655e-04 -1.521632e-04 9.128854e-04
-2.110077e-04 -3.252755e-04 8.751989e-04
-4.179743e-04 -4.179773e-04 8.608684e-04
-3.807547e-04 -4.760078e-04 8.423676e-04
-3.024599e-04 -4.808048e-04 8.377859e-04
-1.938989e-04 -4.943468e-04 8.282597e-04
-6.523599e-05 -5.216937e-04 8.142567e-04
6.523186e-05 -5.216936e-04 8.142558e-04
1.939055e-04 -4.943488e-04 8.282596e-04
3.024540e-04 -4.808001e-04 8.377883e-04
3.807540e-04 -4.760049e-04 8.423675e-04
4.179751e-04 -4.179747e-04 8.608643e-04
2.110108e-04 -3.252744e-04 8.751962e-04
-2.465338e-04 -3.304353e-04 8.394282e-04
-4.760046e-04 -3.807523e-04 8.423681e-04
-4.353766e-04 -4.353781e-04 8.345608e-04
-3.637203e-04 -4.512457e-04 8.459915e-04
-2.483968e-04 -4.987729e-04 8.165353e-04
-9.058926e-05 -5.158812e-04 7.958147e-04
9.058042e-05 -5.158749e-04 7.958134e-04
2.484009e-04 -4.987695e-04 8.165393e-04
3.637226e-04 -4.512489e-04 8.459981e-04
4.353792e-04 -4.353748e-04 8.345650e-04
4.760050e-04 -3.807491e-04 8.423713e-04
2.465308e-04 -3.304323e-04 8.394286e-04
-2.402203e-04 -2.697446e-04 8.188517e-04
-4.808034e-04 -3.024543e-04 8.377860e-04
-4.512465e-04 -3.637226e-04 8.459917e-04
-4.041716e-04 -4.041673e-04 8.339416e-04
-3.102944e-04 -4.631694e-04 7.906936e-04
-1.167848e-04 -5.008315e-04 7.331066e-04
1.167887e-04 -5.008312e-04 7.331232e-04
3.102992e-04 -4.631720e-04 7.907067e-04
4.041666e-04 -4.041680e-04 8.339474e-04
4.512471e-04 -3.637208e-04 8.460013e-04
4.808023e-04 -3.024550e-04 8.377933e-04
2.402133e-04 -2.697461e-04 8.188561e-04
-2.444404e-04 -1.598346e-04 8.042178e-04
-4.943538e-04 -1.939115e-04 8.282623e-04
-4.987728e-04 -2.484047e-04 8.165335e-04
-4.631658e-04 -3.102992e-04 7.906976e-04
-3.767637e-04 -3.767565e-04 6.966626e-04
-1.862306e-04 -4.152642e-04 4.410169e-04
1.862261e-04 -4.152670e-04 4.410200e-04
3.767655e-04 -3.767610e-04 6.966634e-04
4.631700e-04 -3.102890e-04 7.907056e-04
4.987709e-04 -2.484012e-04 8.165414e-04
4.943497e-04 -1.939080e-04 8.282666e-04
2.444364e-04 -1.598346e-04 8.042164e-04
-2.542373e-04 -4.741369e-05 7.832983e-04
-5.216959e-04 -6.524290e-05 8.142552e-04
-5.158749e-04 -9.058802e-05 7.958135e-04
-5.008219e-04 -1.167848e-04 7.331212e-04
-4.152675e-04 -1.862245e-04 4.410222e-04
-1.362294e-04 -1.362212e-04 2.458664e-04
1.362258e-04 -1.362243e-04 2.458660e-04
4.152711e-04 -1.862253e-04 4.410174e-04
5.008256e-04 -1.167895e-04 7.331281e-04
5.158714e-04 -9.058936e-05 7.958224e-04
5.216968e-04 -6.523934e-05 8.142556e-04
2.542345e-04 -4.741151e-05 7.832987e-04
-2.542345e-04 4.741348e-05 7.832972e-04
-5.216940e-04 6.524318e-05 8.142516e-04
-5.158743e-04 9.059015e-05 7.958189e-04
-5.008247e-04 1.167915e-04 7.331235e-04
-4.152693e-04 1.862195e-04 4.410193e-04
-1.362271e-04 1.362215e-04 2.458658e-04
1.362234e-04 1.362253e-04 2.458654e-04
4.152659e-04 1.862229e-04 4.410149e-04
5.008315e-04 1.167882e-04 7.331265e-04
5.158795e-04 9.058770e-05 7.958241e-04
5.216927e-04 6.523661e-05 8.142584e-04
2.542326e-04 4.740959e-05 7.832989e-04
-2.444377e-04 1.598311e-04 8.042151e-04
-4.943482e-04 1.939060e-04 8.282567e-04
-4.987701e-04 2.483964e-04 8.165304e-04
-4.631697e-04 3.102905e-04 7.907039e-04
-3.767622e-04 3.767564e-04 6.966627e-04
-1.862257e-04 4.152652e-04 4.410196e-04
1.862257e-04 4.152651e-04 4.410225e-04
3.767674e-04 3.767672e-04 6.966596e-04
4.631709e-04 3.102947e-04 7.907022e-04
4.987646e-04 2.484013e-04 8.165413e-04
4.943478e-04 1.939048e-04 8.282627e-04
2.444408e-04 1.598307e-04 8.042163e-04
-2.402195e-04 2.697399e-04 8.188557e-04
-4.808031e-04 3.024479e-04 8.377826e-04
-4.512474e-04 3.637174e-04 8.459894e-04
-4.041607e-04 4.041651e-04 8.339362e-04
-3.102935e-04 4.631736e-04 7.907057e-04
-1.167924e-04 5.008284e-04 7.331251e-04
1.167937e-04 5.008269e-04 7.331163e-04
3.103000e-04 4.631760e-04 7.907008e-04
4.041627e-04 4.041585e-04 8.339345e-04
4.512457e-04 3.637157e-04 8.459821e-04
4.808057e-04 3.024600e-04 8.377812e-04
2.402155e-04 2.697437e-04 8.188561e-04
-2.465396e-04 3.304379e-04 8.394275e-04
-4.760088e-04 3.807557e-04 8.423663e-04
-4.353719e-04 4.353827e-04 8.345580e-04
-3.637172e-04 4.512507e-04 8.459940e-04
-2.484030e-04 4.987724e-04 8.165337e-04
-9.058880e-05 5.158775e-04 7.958183e-04
9.059220e-05 5.158782e-04 7.958137e-04
2.484009e-04 4.987685e-04 8.165295e-04
3.637193e-04 4.512498e-04 8.459915e-04
4.353857e-04 4.353814e-04 8.345513e-04
4.760090e-04 3.807588e-04 8.423639e-04
2.465300e-04 3.304399e-04 8.394303e-04
-2.110106e-04 3.252806e-04 8.751993e-04
-4.179758e-04 4.179808e-04 8.608609e-04
-3.807501e-04 4.760104e-04 8.423675e-04
-3.024533e-04 4.808047e-04 8.377851e-04
-1.939058e-04 4.943474e-04 8.282580e-04
-6.523622e-05 5.216962e-04 8.142554e-04
6.523859e-05 5.216964e-04 8.142550e-04
1.939058e-04 4.943470e-04 8.282609e-04
3.024589e-04 4.808120e-04 8.377908e-04
3.807566e-04 4.760111e-04 8.423702e-04
4.179720e-04 4.179731e-04 8.608630e-04
2.110064e-04 3.252792e-04 8.752008e-04
-1.521655e-04 1.521649e-04 9.128853e-04
-3.252793e-04 2.110134e-04 8.751989e-04
-3.304315e-04 2.465372e-04 8.394239e-04
-2.697407e-04 2.402182e-04 8.188542e-04
-1.598337e-04 2.444397e-04 8.042151e-04
-4.741029e-05 2.542364e-04 7.832974e-04
4.741169e-05 2.542358e-04 7.832950e-04
1.598320e-04 2.444403e-04 8.042148e-04
2.697439e-04 2.402180e-04 8.188521e-04
3.304372e-04 2.465334e-04 8.394272e-04
3.252780e-04 2.110083e-04 8.751983e-04
1.521626e-04 1.521624e-04 9.128876e-04
-1.511861e-04 -1.511849e-04 7.723636e-04
-3.315572e-04 -1.920779e-04 7.433183e-04
-3.423030e-04 -1.906578e-04 6.872284e-04
-2.777505e-04 -1.645588e-04 6.322046e-04
-1.666011e-04 -1.165607e-04 5.935548e-04
-5.078540e-05 -1.143509e-04 5.544184e-04
5.078201e-05 -1.143590e-04 5.544202e-04
1.666069e-04 -1.165615e-04 5.935558e-04
2.777485e-04 -1.645506e-04 6.322049e-04
3.422982e-04 -1.906606e-04 6.872255e-04
3.315593e-04 -1.920808e-04 7.433169e-04
1.511895e-04 -1.511867e-04 7.723641e-04
-1.920827e-04 -3.315582e-04 7.433193e-04
-3.809470e-04 -3.809444e-04 7.517181e-04
-3.625450e-04 -4.029461e-04 7.314162e-04
-3.002323e-04 -3.197376e-04 7.214636e-04
-1.944260e-04 -2.680509e-04 7.082598e-04
-6.788315e-05 -2.487244e-04 6.731204e-04
6.787553e-05 -2.487208e-04 6.731261e-04
1.944326e-04 -2.680498e-04 7.082561e-04
3.002312e-04 -3.197382e-04 7.214691e-04
3.625420e-04 -4.029394e-04 7.314155e-04
3.809494e-04 -3.809416e-04 7.517197e-04
1.920837e-04 -3.315579e-04 7.433190e-04
-1.906590e-04 -3.423038e-04 6.872268e-04
-4.029506e-04 -3.625523e-04 7.314159e-04
-3.812133e-04 -3.812103e-04 7.460885e-04
-3.365554e-04 -3.227610e-04 6.903952e-04
-2.576998e-04 -2.885191e-04 6.571335e-04
-9.005763e-05 -3.436627e-04 5.454788e-04
9.006195e-05 -3.436512e-04 5.454844e-04
2.576991e-04 -2.885093e-04 6.571448e-04
3.365569e-04 -3.227606e-04 6.903975e-04
3.812122e-04 -3.812067e-04 7.460922e-04
4.029438e-04 -3.625417e-04 7.314146e-04
1.906569e-04 -3.422997e-04 6.872248e-04
-1.645630e-04 -2.777501e-04 6.322011e-04
-3.197383e-04 -3.002412e-04 7.214650e-04
-3.227579e-04 -3.365663e-04 6.903894e-04
-2.857379e-04 -2.857356e-04 7.812980e-04
-2.261885e-04 -2.971341e-04 5.911644e-04
-1.296906e-04 -2.556917e-04 4.953687e-04
1.296937e-04 -2.556850e-04 4.953953e-04
2.261745e-04 -2.971311e-04 5.911741e-04
2.857335e-04 -2.857254e-04 7.813092e-04
3.227649e-04 -3.365586e-04 6.903991e-04
3.197361e-04 -3.002334e-04 7.214678e-04
1.645521e-04 -2.777479e-04 6.322000e-04
-1.165704e-04 -1.666047e-04 5.935561e-04
-2.680558e-04 -1.944288e-04 7.082494e-04
-2.885117e-04 -2.577081e-04 6.571329e-04
-2.971276e-04 -2.261769e-04 5.911652e-04
-2.191575e-04 -2.191529e-04 4.922164e-04
0.000000e+00 0.000000e+00 0.000000e+00
0.000000e+00 0.000000e+00 0.000000e+00
2.191662e-04 -2.191676e-04 4.922087e-04
2.971317e-04 -2.261703e-04 5.911742e-04
2.885086e-04 -2.577050e-04 6.571386e-04
2.680451e-04 -1.944343e-04 7.082580e-04
1.165594e-04 -1.666059e-04 5.935597e-04
-1.143642e-04 -5.078599e-05 5.544215e-04
-2.487283e-04 -6.788175e-05 6.731226e-04
-3.436513e-04 -9.005696e-05 5.454796e-04
-2.556874e-04 -1.296887e-04 4.953736e-04
0.000000e+00 0.000000e+00 0.000000e+00
0.000000e+00 0.000000e+00 0.000000e+00
0.000000e+00 0.000000e+00 0.000000e+00
0.000000e+00 0.000000e+00 0.000000e+00
2.556879e-04 -1.296903e-04 4.953871e-04
3.436480e-04 -9.006875e-05 5.454826e-04
2.487195e-04 -6.788337e-05 6.731242e-04
1.143583e-04 -5.078430e-05 5.544219e-04
-1.143645e-04 5.078288e-05 5.544202e-04
-2.487224e-04 6.787908e-05 6.731226e-04
-3.436469e-04 9.006263e-05 5.454809e-04
-2.556827e-04 1.296909e-04 4.953891e-04
0.000000e+00 0.000000e+00 0.000000e+00
0.000000e+00 0.000000e+00 0.000000e+00
0.000000e+00 0.000000e+00 0.000000e+00
0.000000e+00 0.000000e+00 0.000000e+00
2.556851e-04 1.296866e-04 4.953790e-04
3.436475e-04 9.006402e-05 5.454753e-04
2.487287e-04 6.788271e-05 6.731238e-04
1.143593e-04 5.078378e-05 5.544218e-04
-1.165658e-04 1.666049e-04 5.935533e-04
-2.680510e-04 1.944303e-04 7.082554e-04
-2.885103e-04 2.576983e-04 6.571349e-04
-2.971280e-04 2.261646e-04 5.911689e-04
-2.191546e-04 2.191588e-04 4.922168e-04
0.000000e+00 0.000000e+00 0.000000e+00
0.000000e+00 0.000000e+00 0.000000e+00
2.191651e-04 2.191685e-04 4.922082e-04
2.971264e-04 2.261652e-04 5.911726e-04
2.885119e-04 2.576999e-04 6.571289e-04
2.680514e-04 1.944275e-04 7.082604e-04
1.165636e-04 1.666005e-04 5.935566e-04
-1.645612e-04 2.777487e-04 6.322022e-04
-3.197420e-04 3.002341e-04 7.214699e-04
-3.227667e-04 3.365604e-04 6.903934e-04
-2.857244e-04 2.857285e-04 7.812959e-04
-2.261708e-04 2.971332e-04 5.911643e-04
-1.296958e-04 2.556811e-04 4.953903e-04
1.296858e-04 2.556798e-04 4.953876e-04
2.261829e-04 2.971311e-04 5.911672e-04
2.857326e-04 2.857298e-04 7.813007e-04
3.227610e-04 3.365557e-04 6.903930e-04
3.197436e-04 3.002341e-04 7.214687e-04
1.645581e-04 2.777510e-04 6.322033e-04
-1.906644e-04 3.423032e-04 6.872282e-04
-4.029438e-04 3.625488e-04 7.314183e-04
-3.812100e-04 3.812138e-04 7.460928e-04
-3.365583e-04 3.227745e-04 6.903898e-04
-2.576961e-04 2.885129e-04 6.571317e-04
-9.006064e-05 3.436518e-04 5.454823e-04
9.005867e-05 3.436570e-04 5.454811e-04
2.577013e-04 2.885109e-04 6.571340e-04
3.365624e-04 3.227660e-04 6.903965e-04
3.812134e-04 3.812210e-04 7.460933e-04
4.029464e-04 3.625506e-04 7.314145e-04
1.906595e-04 3.423055e-04 6.872280e-04
-1.920835e-04 3.315623e-04 7.433178e-04
-3.809475e-04 3.809500e-04 7.517257e-04
-3.625427e-04 4.029468e-04 7.314165e-04
-3.002313e-04 3.197411e-04 7.214663e-04
-1.944258e-04 2.680490e-04 7.082597e-04
-6.787638e-05 2.487249e-04 6.731232e-04
6.787846e-05 2.487281e-04 6.731222e-04
1.944252e-04 2.680507e-04 7.082547e-04
3.002344e-04 3.197368e-04 7.214609e-04
3.625515e-04 4.029501e-04 7.314140e-04
3.809460e-04 3.809468e-04 7.517178e-04
1.920788e-04 3.315591e-04 7.433161e-04
-1.511873e-04 1.511883e-04 7.723635e-04
-3.315603e-04 1.920859e-04 7.433191e-04
-3.423006e-04 1.906655e-04 6.872288e-04
-2.777469e-04 1.645555e-04 6.322007e-04
-1.666036e-04 1.165654e-04 5.935570e-04
-5.078477e-05 1.143611e-04 5.544202e-04
5.078308e-05 1.143548e-04 5.544219e-04
1.666057e-04 1.165673e-04 5.935550e-04
2.777521e-04 1.645595e-04 6.322015e-04
3.423026e-04 1.906579e-04 6.872285e-04
3.315577e-04 1.920806e-04 7.433155e-04
1.511868e-04 1.511874e-04 7.723632e-04
-1.612561e-04 -1.612541e-04 6.864307e-04
-3.529049e-04 -1.505175e-04 6.680124e-04
-3.700466e-04 -1.120363e-04 6.040958e-04
-3.012086e-04 -2.285087e-05 5.085662e-04
-1.733047e-04 6.600731e-05 4.364796e-04
-5.049498e-05 8.818111e-05 3.621216e-04
5.049591e-05 8.818210e-05 3.621251e-04
1.733056e-04 6.601145e-05 4.364822e-04
3.012053e-04 -2.285041e-05 5.085659e-04
3.700450e-04 -1.120353e-04 6.040997e-04
3.529069e-04 -1.505149e-04 6.680138e-04
1.612578e-04 -1.612539e-04 6.864337e-04
-1.505183e-04 -3.529047e-04 6.680136e-04
-3.274051e-04 -3.274019e-04 7.135202e-04
-3.198001e-04 -2.516382e-04 6.996024e-04
-2.610880e-04 -1.089665e-04 6.594055e-04
-1.819422e-04 1.509073e-04 6.187272e-04
-6.376216e-05 1.820299e-04 5.775911e-04
6.376304e-05 1.820335e-04 5.775969e-04
1.819479e-04 1.509103e-04 6.187331e-04
2.610811e-04 -1.089661e-04 6.594067e-04
3.197960e-04 -2.516333e-04 6.996053e-04
3.274056e-04 -3.274023e-04 7.135251e-04
1.505190e-04 -3.529061e-04 6.680152e-04
-1.120434e-04 -3.700491e-04 6.040961e-04
-2.516362e-04 -3.198003e-04 6.996025e-04
-3.463302e-04 -3.463410e-04 7.115442e-04
-3.566001e-04 -1.332144e-04 6.813275e-04
-1.775383e-04 -7.875296e-05 6.304389e-04
-2.494096e-05 -1.765377e-05 6.312222e-04
2.494641e-05 -1.764062e-05 6.312297e-04
1.775341e-04 -7.874877e-05 6.304419e-04
3.565915e-04 -1.332050e-04 6.813293e-04
3.463295e-04 -3.463307e-04 7.115415e-04
2.516367e-04 -3.197978e-04 6.996001e-04
1.120396e-04 -3.700472e-04 6.040953e-04
-2.286036e-05 -3.012105e-04 5.085698e-04
-1.089767e-04 -2.610970e-04 6.594119e-04
-1.332093e-04 -3.565987e-04 6.813313e-04
-2.015332e-04 -2.015381e-04 6.970542e-04
-1.791757e-04 -2.106337e-04 5.592708e-04
0.000000e+00 0.000000e+00 0.000000e+00
0.000000e+00 0.000000e+00 0.000000e+00
1.791643e-04 -2.106314e-04 5.592752e-04
2.015269e-04 -2.015305e-04 6.970590e-04
1.332076e-04 -3.565892e-04 6.813310e-04
1.089671e-04 -2.610853e-04 6.594037e-04
2.285419e-05 -3.012048e-04 5.085666e-04
6.599887e-05 -1.733060e-04 4.364793e-04
1.509010e-04 -1.819511e-04 6.187336e-04
-7.874909e-05 -1.775321e-04 6.304425e-04
-2.106271e-04 -1.791751e-04 5.592714e-04
0.000000e+00 0.000000e+00 0.000000e+00
0.000000e+00 0.000000e+00 0.000000e+00
0.000000e+00 0.000000e+00 0.000000e+00
0.000000e+00 0.000000e+00 0.000000e+00
2.106354e-04 -1.791765e-04 5.592748e-04
7.874801e-05 -1.775373e-04 6.304380e-04
-1.509135e-04 -1.819529e-04 6.187324e-04
-6.601203e-05 -1.733057e-04 4.364817e-04
8.817564e-05 -5.049557e-05 3.621224e-04
1.820264e-04 -6.376387e-05 5.775936e-04
-1.765706e-05 -2.494546e-05 6.312275e-04
0.000000e+00 0.000000e+00 0.000000e+00
0.000000e+00 0.000000e+00 0.000000e+00
0.000000e+00 0.000000e+00 0.000000e+00
0.000000e+00 0.000000e+00 0.000000e+00
0.000000e+00 0.000000e+00 0.000000e+00
0.000000e+00 0.000000e+00 0.000000e+00
1.765613e-05 -2.495607e-05 6.312269e-04
-1.820250e-04 -6.377015e-05 5.775966e-04
-8.818583e-05 -5.049974e-05 3.621237e-04
8.818065e-05 5.049565e-05 3.621222e-04
1.820253e-04 6.376445e-05 5.775990e-04
-1.765240e-05 2.494894e-05 6.312240e-04
0.000000e+00 0.000000e+00 0.000000e+00
0.000000e+00 0.000000e+00 0.000000e+00
0.000000e+00 0.000000e+00 0.000000e+00
0.000000e+00 0.000000e+00 0.000000e+00
0.000000e+00 0.000000e+00 0.000000e+00
0.000000e+00 0.000000e+00 0.000000e+00
1.766527e-05 2.494574e-05 6.312180e-04
-1.820219e-04 6.376505e-05 5.775916e-04
-8.817791e-05 5.049579e-05 3.621196e-04
6.600487e-05 1.733031e-04 4.364801e-04
1.509060e-04 1.819501e-04 6.187337e-04
-7.874501e-05 1.775308e-04 6.304466e-04
-2.106221e-04 1.791614e-04 5.592782e-04
0.000000e+00 0.000000e+00 0.000000e+00
0.000000e+00 0.000000e+00 0.000000e+00
0.000000e+00 0.000000e+00 0.000000e+00
0.000000e+00 0.000000e+00 0.000000e+00
2.106278e-04 1.791762e-04 5.592721e-04
7.875360e-05 1.775378e-04 6.304327e-04
-1.508949e-04 1.819504e-04 6.187300e-04
-6.600551e-05 1.733064e-04 4.364788e-04
-2.285262e-05 3.012082e-04 5.085652e-04
-1.089672e-04 2.610892e-04 6.594095e-04
-1.332191e-04 3.565928e-04 6.813327e-04
-2.015382e-04 2.015374e-04 6.970577e-04
-1.791619e-04 2.106215e-04 5.592715e-04
0.000000e+00 0.000000e+00 0.000000e+00
0.000000e+00 0.000000e+00 0.000000e+00
1.791704e-04 2.106327e-04 5.592692e-04
2.015368e-04 2.015370e-04 6.970633e-04
1.332188e-04 3.566003e-04 6.813327e-04
1.089715e-04 2.610896e-04 6.594060e-04
2.285402e-05 3.012074e-04 5.085663e-04
-1.120399e-04 3.700507e-04 6.040984e-04
-2.516378e-04 3.198049e-04 6.995993e-04
-3.463363e-04 3.463410e-04 7.115463e-04
-3.565918e-04 1.332220e-04 6.813285e-04
-1.775294e-04 7.875406e-05 6.304404e-04
-2.494534e-05 1.765802e-05 6.312212e-04
2.494373e-05 1.764906e-05 6.312246e-04
1.775330e-04 7.875336e-05 6.304445e-04
3.566006e-04 1.332159e-04 6.813273e-04
3.463353e-04 3.463368e-04 7.115460e-04
2.516368e-04 3.197998e-04 6.995972e-04
1.120402e-04 3.700485e-04 6.040945e-04
-1.505158e-04 3.529076e-04 6.680103e-04
-3.274052e-04 3.274069e-04 7.135273e-04
-3.198018e-04 2.516398e-04 6.995989e-04
-2.610806e-04 1.089678e-04 6.594054e-04
-1.819487e-04 -1.509017e-04 6.187324e-04
-6.376753e-05 -1.820280e-04 5.775921e-04
6.376721e-05 -1.820291e-04 5.775929e-04
1.819459e-04 -1.509046e-04 6.187356e-04
2.610880e-04 1.089677e-04 6.594103e-04
3.197990e-04 2.516378e-04 6.995954e-04
3.274058e-04 3.274064e-04 7.135196e-04
1.505219e-04 3.529072e-04 6.680114e-04
-1.612547e-04 1.612581e-04 6.864332e-04
-3.529057e-04 1.505179e-04 6.680115e-04
-3.700472e-04 1.120404e-04 6.040990e-04
-3.012050e-04 2.285151e-05 5.085650e-04
-1.733052e-04 -6.601057e-05 4.364795e-04
-5.049576e-05 -8.818181e-05 3.621230e-04
5.049508e-05 -8.817716e-05 3.621252e-04
1.733032e-04 -6.600871e-05 4.364855e-04
3.012096e-04 2.285687e-05 5.085680e-04
3.700472e-04 1.120423e-04 6.040945e-04
3.529053e-04 1.505213e-04 6.680112e-04
1.612578e-04 1.612583e-04 6.864308e-04
-1.932543e-04 -1.932505e-04 6.812781e-04
-4.510153e-04 -1.445160e-04 6.666429e-04
-5.041148e-04 -2.977066e-05 6.142401e-04
-4.212311e-04 1.071147e-04 5.024476e-04
-2.600779e-04 2.513987e-04 3.478402e-04
-8.519518e-05 2.709508e-04 2.644174e-04
8.519601e-05 2.709548e-04 2.644174e-04
2.600774e-04 2.514034e-04 3.478409e-04
4.212309e-04 1.071171e-04 5.024506e-04
5.041165e-04 -2.976815e-05 6.142417e-04
4.510153e-04 -1.445167e-04 6.666415e-04
1.932526e-04 -1.932517e-04 6.812764e-04
-1.445164e-04 -4.510123e-04 6.666422e-04
-3.071216e-04 -3.071228e-04 7.474341e-04
-3.361080e-04 -1.234364e-04 7.863090e-04
-3.428642e-04 1.128288e-04 6.549628e-04
-2.466636e-04 4.554128e-04 6.546297e-04
-7.730766e-05 4.423298e-04 5.610823e-04
7.731310e-05 4.423338e-04 5.610802e-04
2.466614e-04 4.554184e-04 6.546339e-04
3.428555e-04 1.128369e-04 6.549634e-04
3.361040e-04 -1.234332e-04 7.863090e-04
3.071218e-04 -3.071249e-04 7.474231e-04
1.445203e-04 -4.510169e-04 6.666373e-04
-2.977235e-05 -5.041144e-04 6.142407e-04