# vtk DataFile Version 2.0
mass_flux
ASCII

DATASET STRUCTURED_POINTS
DIMENSIONS 12 12 12
ORIGIN 0.500000 0.500000 0.500000
SPACING 1.000000 1.000000 1.000000

POINT_DATA 1728
SCALARS mass_flux float 3
LOOKUP_TABLE default
-1.206146e-04 -1.206138e-04 -1.206150e-04
-2.889771e-04 -1.417775e-04 -1.417800e-04
-3.415478e-04 -1.547043e-04 -1.547032e-04
-3.057019e-04 -1.734814e-04 -1.734825e-04
-1.874587e-04 -2.026625e-04 -2.026631e-04
-5.494144e-05 -2.320981e-04 -2.320991e-04
5.494080e-05 -2.320977e-04 -2.320992e-04
1.874588e-04 -2.026634e-04 -2.026645e-04
3.057041e-04 -1.734840e-04 -1.734827e-04
3.415475e-04 -1.546958e-04 -1.547014e-04
2.889755e-04 -1.417790e-04 -1.417774e-04
1.206144e-04 -1.206137e-04 -1.206142e-04
-1.417808e-04 -2.889765e-04 -1.417794e-04
-3.238622e-04 -3.238593e-04 -1.418850e-04
-3.657677e-04 -3.569356e-04 -1.243316e-04
-3.263262e-04 -4.115515e-04 -1.131762e-04
-2.042903e-04 -4.826967e-04 -1.180323e-04
-6.164861e-05 -5.524265e-04 -1.461449e-04
6.164840e-05 -5.524250e-04 -1.461410e-04
2.042877e-04 -4.826937e-04 -1.180294e-04
3.263316e-04 -4.115495e-04 -1.131727e-04
3.657706e-04 -3.569329e-04 -1.243320e-04
3.238583e-04 -3.238595e-04 -1.418846e-04
1.417789e-04 -2.889760e-04 -1.417784e-04
-1.547029e-04 -3.415480e-04 -1.547017e-04
-3.569380e-04 -3.657700e-04 -1.243312e-04
-4.106122e-04 -4.106085e-04 -6.216878e-05
-3.678900e-04 -4.851944e-04 -4.186644e-06
-2.276470e-04 -5.784990e-04 1.018442e-05
-6.813266e-05 -6.548736e-04 -1.265330e-05
6.813568e-05 -6.548755e-04 -1.264847e-05
2.276492e-04 -5.784986e-04 1.019606e-05
3.678923e-04 -4.851897e-04 -4.192407e-06
4.106076e-04 -4.106156e-04 -6.216115e-05
3.569340e-04 -3.657726e-04 -1.243315e-04
1.547037e-04 -3.415515e-04 -1.547047e-04
-1.734814e-04 -3.057025e-04 -1.734805e-04
-4.115517e-04 -3.263351e-04 -1.131752e-04
-4.851947e-04 -3.678900e-04 -4.183443e-06
-4.389045e-04 -4.389058e-04 7.893995e-05
-2.702746e-04 -5.319772e-04 1.122621e-04
-7.849811e-05 -5.905994e-04 9.474088e-05
7.849468e-05 -5.905976e-04 9.474205e-05
2.702794e-04 -5.319778e-04 1.122633e-04
4.389076e-04 -4.389098e-04 7.894775e-05
4.851885e-04 -3.678908e-04 -4.189380e-06
4.115486e-04 -3.263306e-04 -1.131831e-04
1.734860e-04 -3.057029e-04 -1.734812e-04
-2.026674e-04 -1.874588e-04 -2.026656e-04
-4.826959e-04 -2.042909e-04 -1.180266e-04
-5.784964e-04 -2.276461e-04 1.018948e-05
-5.319761e-04 -2.702708e-04 1.122638e-04
-3.241577e-04 -3.241613e-04 1.509724e-04
-9.064685e-05 -3.684520e-04 1.264171e-04
9.064746e-05 -3.684478e-04 1.264171e-04
3.241551e-04 -3.241602e-04 1.509759e-04
5.319773e-04 -2.702768e-04 1.122692e-04
5.784970e-04 -2.276491e-04 1.019257e-05
4.826951e-04 -2.042887e-04 -1.180293e-04
2.026681e-04 -1.874557e-04 -2.026679e-04
-2.320995e-04 -5.494157e-05 -2.320974e-04
-5.524252e-04 -6.164551e-05 -1.461497e-04
-6.548747e-04 -6.813378e-05 -1.264265e-05
-5.906012e-04 -7.849273e-05 9.475532e-05
-3.684483e-04 -9.064844e-05 1.264159e-04
-1.123983e-04 -1.124023e-04 1.145280e-04
1.124028e-04 -1.124060e-04 1.145345e-04
3.684465e-04 -9.065321e-05 1.264246e-04
5.905967e-04 -7.849891e-05 9.475206e-05
6.548762e-04 -6.813726e-05 -1.264695e-05
5.524266e-04 -6.164863e-05 -1.461444e-04
2.320979e-04 -5.494221e-05 -2.320980e-04
-2.320986e-04 5.494048e-05 -2.321011e-04
-5.524232e-04 6.164741e-05 -1.461421e-04
-6.548741e-04 6.813391e-05 -1.264928e-05
-5.906016e-04 7.849246e-05 9.474542e-05
-3.684522e-04 9.065053e-05 1.264204e-04
-1.124059e-04 1.124028e-04 1.145306e-04
1.124029e-04 1.123996e-04 1.145334e-04
3.684467e-04 9.064836e-05 1.264235e-04
5.906031e-04 7.849671e-05 9.474542e-05
6.548791e-04 6.813482e-05 -1.264788e-05
5.524225e-04 6.165028e-05 -1.461480e-04
2.321006e-04 5.494126e-05 -2.321011e-04
-2.026662e-04 1.874553e-04 -2.026663e-04
-4.826910e-04 2.042862e-04 -1.180241e-04
-5.784974e-04 2.276478e-04 1.019333e-05
-5.319765e-04 2.702730e-04 1.122613e-04
-3.241584e-04 3.241606e-04 1.509800e-04
-9.065541e-05 3.684481e-04 1.264220e-04
9.064946e-05 3.684465e-04 1.264180e-04
3.241589e-04 3.241578e-04 1.509753e-04
5.319765e-04 2.702753e-04 1.122686e-04
5.785035e-04 2.276450e-04 1.020072e-05
4.826942e-04 2.042890e-04 -1.180297e-04
2.026618e-04 1.874599e-04 -2.026676e-04
-1.734852e-04 3.057035e-04 -1.734856e-04
-4.115460e-04 3.263300e-04 -1.131809e-04
-4.851910e-04 3.678887e-04 -4.187343e-06
-4.389067e-04 4.389042e-04 7.894798e-05
-2.702723e-04 5.319770e-04 1.122642e-04
-7.849940e-05 5.906007e-04 9.474112e-05
7.849393e-05 5.906026e-04 9.473611e-05
2.702734e-04 5.319769e-04 1.122593e-04
4.389078e-04 4.389054e-04 7.894204e-05
4.851957e-04 3.678927e-04 -4.190777e-06
4.115468e-04 3.263261e-04 -1.131756e-04
1.734824e-04 3.057025e-04 -1.734826e-04
-1.546995e-04 3.415509e-04 -1.547053e-04
-3.569353e-04 3.657745e-04 -1.243351e-04
-4.106117e-04 4.106080e-04 -6.216709e-05
-3.678889e-04 4.851919e-04 -4.194386e-06
-2.276464e-04 5.784982e-04 1.018890e-05
-6.813538e-05 6.548756e-04 -1.265435e-05
6.813224e-05 6.548767e-04 -1.265149e-05
2.276448e-04 5.785035e-04 1.020200e-05
3.678933e-04 4.851939e-04 -4.190777e-06
4.106110e-04 4.106129e-04 -6.217809e-05
3.569321e-04 3.657707e-04 -1.243357e-04
1.547036e-04 3.415466e-04 -1.547023e-04
-1.417791e-04 2.889759e-04 -1.417813e-04
-3.238596e-04 3.238603e-04 -1.418858e-04
-3.657710e-04 3.569361e-04 -1.243363e-04
-3.263286e-04 4.115499e-04 -1.131787e-04
-2.042911e-04 4.826935e-04 -1.180286e-04
-6.165085e-05 5.524236e-04 -1.461456e-04
6.164976e-05 5.524223e-04 -1.461445e-04
2.042874e-04 4.826949e-04 -1.180306e-04
3.263302e-04 4.115485e-04 -1.131755e-04
3.657735e-04 3.569328e-04 -1.243352e-04
3.238607e-04 3.238634e-04 -1.418922e-04
1.417783e-04 2.889766e-04 -1.417821e-04
-1.206144e-04 1.206147e-04 -1.206145e-04
-2.889767e-04 1.417794e-04 -1.417818e-04
-3.415513e-04 1.547034e-04 -1.547064e-04
-3.057030e-04 1.734847e-04 -1.734824e-04
-1.874557e-04 2.026647e-04 -2.026625e-04
-5.494137e-05 2.321006e-04 -2.321004e-04
5.494149e-05 2.321009e-04 -2.321016e-04
1.874602e-04 2.026648e-04 -2.026648e-04
3.057028e-04 1.734887e-04 -1.734836e-04
3.415466e-04 1.547029e-04 -1.547006e-04
2.889765e-04 1.417792e-04 -1.417816e-04
1.206145e-04 1.206148e-04 -1.206150e-04
-1.417805e-04 -1.417766e-04 -2.889772e-04
-3.238609e-04 -1.418826e-04 -3.238603e-04
-3.657675e-04 -1.243360e-04 -3.569375e-04
-3.263276e-04 -1.131753e-04 -4.115515e-04
-2.042924e-04 -1.180226e-04 -4.826958e-04
-6.164976e-05 -1.461423e-04 -5.524270e-04
6.164909e-05 -1.461432e-04 -5.524240e-04
2.042929e-04 -1.180254e-04 -4.826957e-04
3.263344e-04 -1.131753e-04 -4.115562e-04
3.657675e-04 -1.243293e-04 -3.569377e-04
3.238564e-04 -1.418813e-04 -3.238579e-04
1.417780e-04 -1.417782e-04 -2.889754e-04
-1.418855e-04 -3.238610e-04 -3.238604e-04
-3.047546e-04 -3.047516e-04 -3.047522e-04
-3.232869e-04 -2.692930e-04 -2.692924e-04
-2.791903e-04 -2.517286e-04 -2.517287e-04
-1.738705e-04 -2.816672e-04 -2.816645e-04
-5.509835e-05 -3.342773e-04 -3.342750e-04
5.509970e-05 -3.342731e-04 -3.342789e-04
1.738677e-04 -2.816602e-04 -2.816663e-04
2.792004e-04 -2.517289e-04 -2.517280e-04
3.232859e-04 -2.692906e-04 -2.692963e-04
3.047432e-04 -3.047439e-04 -3.047503e-04
1.418888e-04 -3.238591e-04 -3.238595e-04
-1.243365e-04 -3.657697e-04 -3.569359e-04
-2.692950e-04 -3.232858e-04 -2.692948e-04
-2.827145e-04 -2.827055e-04 -1.329568e-04
-2.389410e-04 -2.858824e-04 -4.801922e-05
-1.415759e-04 -3.261815e-04 -1.692353e-05
-4.038725e-05 -3.872105e-04 -8.166512e-05
4.039318e-05 -3.872147e-04 -8.166931e-05
1.415739e-04 -3.261800e-04 -1.691771e-05
2.389379e-04 -2.858777e-04 -4.801783e-05
2.827173e-04 -2.827199e-04 -1.329613e-04
2.692931e-04 -3.232962e-04 -2.692972e-04
1.243338e-04 -3.657695e-04 -3.569354e-04
-1.131805e-04 -3.263294e-04 -4.115473e-04
-2.517214e-04 -2.791916e-04 -2.517191e-04
-2.858860e-04 -2.389404e-04 -4.802144e-05
-2.502034e-04 -2.501953e-04 8.984259e-05
-1.335730e-04 -2.862846e-04 1.182831e-04
-3.071400e-05 -3.300955e-04 8.005253e-05
3.071575e-05 -3.300986e-04 8.005532e-05
1.335753e-04 -2.862866e-04 1.182859e-04
2.501990e-04 -2.501976e-04 8.984120e-05
2.858787e-04 -2.389408e-04 -4.802376e-05
2.517269e-04 -2.791993e-04 -2.517264e-04
1.131821e-04 -3.263303e-04 -4.115494e-04
-1.180261e-04 -2.042907e-04 -4.826908e-04
-2.816584e-04 -1.738730e-04 -2.816530e-04
-3.261832e-04 -1.415792e-04 -1.691876e-05
-2.862881e-04 -1.335704e-04 1.182852e-04
-1.929401e-04 -1.929404e-04 1.483876e-04
-6.921045e-05 -1.738486e-04 1.963275e-04
6.921389e-05 -1.738440e-04 1.963312e-04
1.929418e-04 -1.929373e-04 1.483869e-04
2.862898e-04 -1.335770e-04 1.182787e-04
3.261757e-04 -1.415720e-04 -1.691619e-05
2.816539e-04 -1.738626e-04 -2.816536e-04
1.180320e-04 -2.042913e-04 -4.826957e-04
-1.461492e-04 -6.164931e-05 -5.524273e-04
-3.342720e-04 -5.510113e-05 -3.342739e-04
-3.872020e-04 -4.038878e-05 -8.166092e-05
-3.301023e-04 -3.071564e-05 8.005113e-05
-1.738533e-04 -6.920483e-05 1.963340e-04
-4.280629e-05 -4.280810e-05 1.374898e-04
4.281139e-05 -4.280981e-05 1.374851e-04
1.738482e-04 -6.921211e-05 1.963330e-04
3.300975e-04 -3.072579e-05 8.005695e-05
3.872067e-04 -4.039527e-05 -8.166186e-05
3.342732e-04 -5.510424e-05 -3.342739e-04
1.461481e-04 -6.165080e-05 -5.524257e-04
-1.461431e-04 6.164738e-05 -5.524232e-04
-3.342752e-04 5.510528e-05 -3.342755e-04
-3.872128e-04 4.039209e-05 -8.165766e-05
-3.300896e-04 3.070790e-05 8.005672e-05
-1.738490e-04 6.921394e-05 1.963275e-04
-4.281703e-05 4.281310e-05 1.374879e-04
4.281814e-05 4.281450e-05 1.374898e-04
1.738456e-04 6.921464e-05 1.963326e-04
3.300855e-04 3.071142e-05 8.005835e-05
3.872139e-04 4.039233e-05 -8.165953e-05
3.342780e-04 5.510073e-05 -3.342818e-04
1.461449e-04 6.164744e-05 -5.524271e-04
-1.180229e-04 2.042893e-04 -4.826928e-04
-2.816560e-04 1.738645e-04 -2.816542e-04
-3.261873e-04 1.415762e-04 -1.691608e-05
-2.862827e-04 1.335738e-04 1.182887e-04
-1.929365e-04 1.929351e-04 1.483886e-04
-6.921764e-05 1.738474e-04 1.963261e-04
6.921709e-05 1.738411e-04 1.963312e-04
1.929333e-04 1.929264e-04 1.483858e-04
2.862788e-04 1.335732e-04 1.182922e-04
3.261884e-04 1.415721e-04 -1.691503e-05
2.816588e-04 1.738728e-04 -2.816594e-04
1.180268e-04 2.042889e-04 -4.826977e-04
-1.131748e-04 3.263293e-04 -4.115501e-04
-2.517132e-04 2.791844e-04 -2.517190e-04
-2.858841e-04 2.389367e-04 -4.802563e-05
-2.502021e-04 2.501995e-04 8.983654e-05
-1.335759e-04 2.862791e-04 1.182826e-04
-3.072686e-05 3.300915e-04 8.005975e-05
3.071385e-05 3.300864e-04 8.005905e-05
1.335765e-04 2.862774e-04 1.182912e-04
2.502025e-04 2.502066e-04 8.983631e-05
2.858914e-04 2.389392e-04 -4.803238e-05
2.517211e-04 2.791843e-04 -2.517208e-04
1.131717e-04 3.263277e-04 -4.115475e-04
-1.243319e-04 3.657706e-04 -3.569382e-04
-2.692886e-04 3.232912e-04 -2.692925e-04
-2.827182e-04 2.827128e-04 -1.329609e-04
-2.389353e-04 2.858813e-04 -4.802714e-05
-1.415748e-04 3.261832e-04 -1.692353e-05
-4.039647e-05 3.872118e-04 -8.166372e-05
4.039294e-05 3.872176e-04 -8.166116e-05
1.415744e-04 3.261901e-04 -1.691189e-05
2.389436e-04 2.858930e-04 -4.802493e-05
2.827157e-04 2.827189e-04 -1.329897e-04
2.692858e-04 3.232834e-04 -2.692896e-04
1.243323e-04 3.657705e-04 -3.569316e-04
-1.418836e-04 3.238597e-04 -3.238612e-04
-3.047521e-04 3.047520e-04 -3.047499e-04
-3.232947e-04 2.692893e-04 -2.692935e-04
-2.791887e-04 2.517233e-04 -2.517246e-04
-1.738634e-04 2.816591e-04 -2.816566e-04
-5.510261e-05 3.342745e-04 -3.342769e-04
5.510463e-05 3.342775e-04 -3.342819e-04
1.738694e-04 2.816584e-04 -2.816576e-04
2.791861e-04 2.517141e-04 -2.517126e-04
3.232826e-04 2.692868e-04 -2.692851e-04
3.047513e-04 3.047556e-04 -3.047537e-04
1.418906e-04 3.238634e-04 -3.238641e-04
-1.417811e-04 1.417801e-04 -2.889757e-04
-3.238605e-04 1.418877e-04 -3.238615e-04
-3.657685e-04 1.243354e-04 -3.569367e-04
-3.263264e-04 1.131823e-04 -4.115482e-04
-2.042932e-04 1.180303e-04 -4.826949e-04
-6.165237e-05 1.461440e-04 -5.524268e-04
6.165110e-05 1.461457e-04 -5.524280e-04
2.042880e-04 1.180345e-04 -4.826976e-04
3.263283e-04 1.131831e-04 -4.115448e-04
3.657736e-04 1.243378e-04 -3.569305e-04
3.238628e-04 1.418905e-04 -3.238631e-04
1.417777e-04 1.417809e-04 -2.889777e-04
-1.547056e-04 -1.547026e-04 -3.415502e-04
-3.569369e-04 -1.243324e-04 -3.657712e-04
-4.106085e-04 -6.216683e-05 -4.106115e-04
-3.678853e-04 -4.188274e-06 -4.851920e-04
-2.276472e-04 1.018599e-05 -5.784954e-04
-6.813806e-05 -1.264631e-05 -6.548733e-04
6.813335e-05 -1.264206e-05 -6.548793e-04
2.276459e-04 1.019472e-05 -5.785025e-04
3.678903e-04 -4.194968e-06 -4.851932e-04
4.106108e-04 -6.217117e-05 -4.106117e-04
3.569375e-04 -1.243307e-04 -3.657715e-04
1.547032e-04 -1.547002e-04 -3.415515e-04
-1.243328e-04 -3.569337e-04 -3.657691e-04
-2.692924e-04 -2.692944e-04 -3.232907e-04
-2.827212e-04 -1.329633e-04 -2.827201e-04
-2.389374e-04 -4.801841e-05 -2.858829e-04
-1.415690e-04 -1.692586e-05 -3.261767e-04
-4.039123e-05 -8.166698e-05 -3.872096e-04
4.038580e-05 -8.166279e-05 -3.872167e-04
1.415712e-04 -1.691969e-05 -3.261842e-04
2.389425e-04 -4.801480e-05 -2.858834e-04
2.827179e-04 -1.329618e-04 -2.827194e-04
2.692922e-04 -2.692960e-04 -3.232971e-04
1.243339e-04 -3.569340e-04 -3.657711e-04
-6.217122e-05 -4.106069e-04 -4.106096e-04
-1.329590e-04 -2.827119e-04 -2.827177e-04
-1.491531e-04 -1.491518e-04 -1.491537e-04
-1.202384e-04 -8.796365e-05 -8.796924e-05
-4.513899e-05 -8.949195e-05 -8.949055e-05
-3.272697e-06 -1.356397e-04 -1.356390e-04
3.275316e-06 -1.356390e-04 -1.356476e-04
4.514819e-05 -8.949148e-05 -8.949987e-05
1.202319e-04 -8.796016e-05 -8.796318e-05
1.491430e-04 -1.491561e-04 -1.491588e-04
1.329633e-04 -2.827156e-04 -2.827170e-04
6.217096e-05 -4.106107e-04 -4.106073e-04
-4.188449e-06 -3.678873e-04 -4.851934e-04
-4.802353e-05 -2.389303e-04 -2.858790e-04
-8.796528e-05 -1.202272e-04 -8.796982e-05
-7.790735e-05 -7.790956e-05 -4.929816e-05
-7.588498e-05 -1.114912e-04 -4.645437e-05
-4.210195e-05 -1.096325e-04 -1.408579e-05
4.210402e-05 -1.096295e-04 -1.408672e-05
7.588358e-05 -1.114956e-04 -4.645530e-05
7.790246e-05 -7.791247e-05 -4.929956e-05
8.796295e-05 -1.202279e-04 -8.796784e-05
4.802411e-05 -2.389316e-04 -2.858763e-04
4.193396e-06 -3.678905e-04 -4.851896e-04
1.019362e-05 -2.276539e-04 -5.784965e-04
-1.692446e-05 -1.415808e-04 -3.261825e-04
-8.950126e-05 -4.514074e-05 -8.949544e-05
-1.114944e-04 -7.588346e-05 -4.645623e-05
-5.774957e-05 -5.775166e-05 2.677599e-05
-8.606527e-06 -5.703582e-05 5.727820e-05
8.608331e-06 -5.703489e-05 5.728239e-05
5.774712e-05 -5.774945e-05 2.677971e-05
1.114979e-04 -7.588079e-05 -4.645996e-05
8.949940e-05 -4.513649e-05 -8.949242e-05
1.691922e-05 -1.415763e-04 -3.261801e-04
-1.018937e-05 -2.276476e-04 -5.784966e-04
-1.264567e-05 -6.813928e-05 -6.548790e-04
-8.165813e-05 -4.039732e-05 -3.872083e-04
-1.356397e-04 -3.278314e-06 -1.356436e-04
-1.096344e-04 -4.210172e-05 -1.409091e-05
-5.703745e-05 -8.605479e-06 5.728053e-05
-1.404906e-05 -1.404394e-05 1.855474e-05
1.405337e-05 -1.404918e-05 1.854775e-05
5.703582e-05 -8.606992e-06 5.727634e-05
1.096295e-04 -4.210594e-05 -1.408346e-05
1.356369e-04 -3.287714e-06 -1.356385e-04
8.165999e-05 -4.040039e-05 -3.872095e-04
1.264882e-05 -6.813862e-05 -6.548782e-04
-1.264107e-05 6.813915e-05 -6.548762e-04
-8.166023e-05 4.040112e-05 -3.872153e-04
-1.356453e-04 3.280787e-06 -1.356390e-04
-1.096288e-04 4.209919e-05 -1.407694e-05
-5.703419e-05 8.607632e-06 5.727680e-05
-1.405366e-05 1.404912e-05 1.854869e-05
1.405500e-05 1.404702e-05 1.854682e-05
5.703256e-05 8.605071e-06 5.727541e-05
1.096269e-04 4.209942e-05 -1.407973e-05
1.356397e-04 3.281195e-06 -1.356392e-04
8.165673e-05 4.039280e-05 -3.872124e-04
1.265033e-05 6.813160e-05 -6.548741e-04
1.020468e-05 2.276454e-04 -5.784972e-04
-1.692260e-05 1.415756e-04 -3.261876e-04
-8.950150e-05 4.513568e-05 -8.950057e-05
-1.114919e-04 7.587590e-05 -4.646042e-05
-5.775108e-05 5.775178e-05 2.677273e-05
-8.614385e-06 5.703862e-05 5.727820e-05
8.608971e-06 5.703070e-05 5.727867e-05
5.774864e-05 5.774444e-05 2.677226e-05
1.114979e-04 7.587729e-05 -4.645530e-05
8.950359e-05 4.515098e-05 -8.950406e-05
1.691014e-05 1.415775e-04 -3.261837e-04
-1.019245e-05 2.276468e-04 -5.784982e-04
-4.191708e-06 3.678844e-04 -4.851877e-04
-4.801655e-05 2.389288e-04 -2.858786e-04
-8.797180e-05 1.202248e-04 -8.797576e-05
-7.790630e-05 7.790595e-05 -4.931889e-05
-7.587101e-05 1.114914e-04 -4.645693e-05
-4.210489e-05 1.096306e-04 -1.406483e-05
4.209523e-05 1.096318e-04 -1.406996e-05
7.587997e-05 1.114998e-04 -4.645064e-05
7.790024e-05 7.790036e-05 -4.929001e-05
8.797226e-05 1.202058e-04 -8.796598e-05
4.803145e-05 2.389388e-04 -2.858937e-04
4.182919e-06 3.678943e-04 -4.851958e-04
-6.217134e-05 4.106096e-04 -4.106100e-04
-1.329603e-04 2.827127e-04 -2.827178e-04
-1.491605e-04 1.491559e-04 -1.491535e-04
-1.202320e-04 8.796924e-05 -8.796947e-05
-4.513230e-05 8.949474e-05 -8.949218e-05
-3.277790e-06 1.356325e-04 -1.356311e-04
3.278372e-06 1.356392e-04 -1.356418e-04
4.515378e-05 8.950778e-05 -8.951291e-05
1.202054e-04 8.797646e-05 -8.796714e-05
1.491347e-04 1.491476e-04 -1.491388e-04
1.329880e-04 2.827180e-04 -2.827141e-04
6.217349e-05 4.106104e-04 -4.106132e-04
-1.243331e-04 3.569398e-04 -3.657740e-04
-2.692914e-04 2.692922e-04 -3.232928e-04
-2.827128e-04 1.329620e-04 -2.827144e-04
-2.389337e-04 4.802342e-05 -2.858790e-04
-1.415770e-04 1.692679e-05 -3.261829e-04
-4.040060e-05 8.166232e-05 -3.872124e-04
4.039195e-05 8.165534e-05 -3.872167e-04
1.415816e-04 1.691061e-05 -3.261873e-04
2.389452e-04 4.802935e-05 -2.858909e-04
2.827129e-04 1.329851e-04 -2.827098e-04
2.692829e-04 2.692885e-04 -3.232787e-04
1.243331e-04 3.569324e-04 -3.657706e-04
-1.547027e-04 1.547052e-04 -3.415516e-04
-3.569363e-04 1.243363e-04 -3.657732e-04
-4.106071e-04 6.216907e-05 -4.106076e-04
-3.678869e-04 4.191184e-06 -4.851918e-04
-2.276491e-04 -1.019228e-05 -5.784965e-04
-6.813930e-05 1.265231e-05 -6.548734e-04
6.813263e-05 1.265149e-05 -6.548772e-04
2.276487e-04 -1.019909e-05 -5.785043e-04
3.678956e-04 4.187052e-06 -4.851966e-04
4.106090e-04 6.217050e-05 -4.106137e-04
3.569305e-04 1.243349e-04 -3.657693e-04
1.547045e-04 1.547056e-04 -3.415498e-04
-1.734859e-04 -1.734827e-04 -3.057014e-04
-4.115489e-04 -1.131778e-04 -3.263293e-04
-4.851894e-04 -4.186062e-06 -3.678846e-04
-4.389042e-04 7.894111e-05 -4.389014e-04
-2.702744e-04 1.122640e-04 -5.319783e-04
-7.850044e-05 9.475171e-05 -5.906009e-04
7.849318e-05 9.474461e-05 -5.906051e-04
2.702760e-04 1.122709e-04 -5.319793e-04
4.389077e-04 7.895345e-05 -4.388992e-04
4.851927e-04 -4.186935e-06 -3.678858e-04
4.115490e-04 -1.131796e-04 -3.263312e-04
1.734845e-04 -1.734802e-04 -3.057043e-04
-1.131807e-04 -4.115482e-04 -3.263292e-04
-2.517264e-04 -2.517241e-04 -2.791895e-04
-2.858810e-04 -4.802179e-05 -2.389338e-04
-2.501939e-04 8.983514e-05 -2.501901e-04
-1.335744e-04 1.182773e-04 -2.862905e-04
-3.072152e-05 8.005043e-05 -3.301044e-04
3.070803e-05 8.005300e-05 -3.300889e-04
1.335822e-04 1.182877e-04 -2.862754e-04
2.502102e-04 8.983887e-05 -2.502007e-04
2.858745e-04 -4.802295e-05 -2.389287e-04
2.517202e-04 -2.517223e-04 -2.791842e-04
1.131829e-04 -4.115467e-04 -3.263294e-04
-4.193804e-06 -4.851917e-04 -3.678896e-04
-4.802330e-05 -2.858790e-04 -2.389382e-04
-8.796609e-05 -8.796528e-05 -1.202339e-04
-7.790455e-05 -4.929700e-05 -7.790700e-05
-7.588323e-05 -4.645763e-05 -1.114963e-04
-4.210451e-05 -1.409044e-05 -1.096341e-04
4.210218e-05 -1.407648e-05 -1.096241e-04
7.589161e-05 -4.645460e-05 -1.114989e-04
7.790735e-05 -4.930445e-05 -7.790863e-05
8.795899e-05 -8.796516e-05 -1.202283e-04
4.802621e-05 -2.858758e-04 -2.389277e-04
4.189380e-06 -4.851911e-04 -3.678891e-04
7.894274e-05 -4.389063e-04 -4.389063e-04
8.983468e-05 -2.501960e-04 -2.502046e-04
-4.930166e-05 -7.790315e-05 -7.790746e-05
-1.206743e-04 -1.206729e-04 -1.206750e-04
-8.784095e-05 -4.774216e-05 -4.774216e-05
-2.732663e-05 -3.384054e-05 -3.384613e-05
2.732885e-05 -3.383448e-05 -3.384473e-05
8.784188e-05 -4.774635e-05 -4.774611e-05
1.206740e-04 -1.206775e-04 -1.206743e-04
4.930003e-05 -7.789780e-05 -7.789687e-05
-8.983491e-05 -2.501972e-04 -2.501946e-04
-7.894449e-05 -4.389088e-04 -4.389039e-04
1.122673e-04 -2.702757e-04 -5.319823e-04
1.182819e-04 -1.335836e-04 -2.862886e-04
-4.645879e-05 -7.588160e-05 -1.114949e-04
-4.774309e-05 -8.783909e-05 -4.774262e-05
4.325248e-05 4.325504e-05 5.535781e-05
3.851403e-05 -8.318713e-05 -6.874930e-05
-3.851089e-05 -8.319109e-05 -6.875535e-05
-4.325714e-05 4.325528e-05 5.534990e-05
4.774542e-05 -8.783280e-05 -4.774053e-05
4.646205e-05 -7.588335e-05 -1.114968e-04
-1.182861e-04 -1.335790e-04 -2.862862e-04
-1.122699e-04 -2.702759e-04 -5.319790e-04
9.474752e-05 -7.849919e-05 -5.905997e-04
8.005835e-05 -3.072123e-05 -3.300911e-04
-1.408579e-05 -4.209974e-05 -1.096325e-04
-3.383774e-05 -2.732791e-05 -3.384240e-05
-8.318946e-05 3.851531e-05 -6.875023e-05
-4.879071e-05 -4.878722e-05 -4.252419e-06
4.879234e-05 -4.879152e-05 -4.255679e-06
8.319085e-05 3.851659e-05 -6.875582e-05
3.384333e-05 -2.732873e-05 -3.384100e-05
1.408439e-05 -4.211170e-05 -1.096311e-04
-8.005765e-05 -3.072451e-05 -3.300944e-04
-9.475416e-05 -7.849679e-05 -5.906009e-04
9.474962e-05 7.849758e-05 -5.906004e-04
8.006277e-05 3.071646e-05 -3.300924e-04
-1.408765e-05 4.210506e-05 -1.096369e-04
-3.384287e-05 2.733001e-05 -3.384100e-05
-8.318992e-05 -3.851508e-05 -6.875163e-05
-4.879793e-05 4.878279e-05 -4.258938e-06
4.879269e-05 4.878419e-05 -4.253350e-06
8.319668e-05 -3.852090e-05 -6.875442e-05
3.384007e-05 2.732151e-05 -3.384147e-05
1.407834e-05 4.209898e-05 -1.096274e-04
-8.005509e-05 3.071383e-05 -3.300860e-04
-9.474729e-05 7.849632e-05 -5.905975e-04
1.122686e-04 2.702801e-04 -5.319777e-04
1.182880e-04 1.335771e-04 -2.862869e-04
-4.646182e-05 7.587066e-05 -1.114975e-04
-4.774984e-05 8.782954e-05 -4.774635e-05
4.325924e-05 -4.325761e-05 5.535269e-05
3.851356e-05 8.319900e-05 -6.875070e-05
-3.851671e-05 8.320273e-05 -6.875396e-05
-4.325481e-05 -4.325714e-05 5.535036e-05
4.775031e-05 8.784630e-05 -4.775100e-05
4.645460e-05 7.587869e-05 -1.114996e-04
-1.182889e-04 1.335770e-04 -2.862823e-04
-1.122626e-04 2.702730e-04 -5.319738e-04
7.894984e-05 4.389023e-04 -4.389029e-04
8.983049e-05 2.502030e-04 -2.501975e-04
-4.931469e-05 7.790083e-05 -7.789792e-05
-1.206654e-04 1.206624e-04 -1.206689e-04
-8.781184e-05 4.774379e-05 -4.773936e-05
-2.732535e-05 3.385218e-05 -3.384752e-05
2.731313e-05 3.384473e-05 -3.385078e-05
8.783815e-05 4.774565e-05 -4.774868e-05
1.206726e-04 1.206722e-04 -1.206673e-04
4.928885e-05 7.790339e-05 -7.789617e-05
-8.984143e-05 2.501992e-04 -2.501988e-04
-7.893483e-05 4.389067e-04 -4.389044e-04
-4.190893e-06 4.851831e-04 -3.678832e-04
-4.801806e-05 2.858822e-04 -2.389368e-04
-8.797564e-05 8.797378e-05 -1.202339e-04
-7.790432e-05 4.931097e-05 -7.789652e-05
-7.586868e-05 4.645740e-05 -1.114963e-04
-4.210661e-05 1.407182e-05 -1.096351e-04
4.209179e-05 1.406204e-05 -1.096260e-04
7.587939e-05 4.644832e-05 -1.115007e-04
7.791328e-05 4.929421e-05 -7.790630e-05
8.797005e-05 8.797576e-05 -1.202041e-04
4.802214e-05 2.858933e-04 -2.389365e-04
4.187110e-06 4.851937e-04 -3.678932e-04
-1.131792e-04 4.115502e-04 -3.263265e-04
-2.517217e-04 2.517229e-04 -2.791894e-04
-2.858796e-04 4.801888e-05 -2.389333e-04
-2.502011e-04 -8.982862e-05 -2.501984e-04
-1.335790e-04 -1.182796e-04 -2.862891e-04
-3.072416e-05 -8.006045e-05 -3.300953e-04
3.071252e-05 -8.005649e-05 -3.300817e-04
1.335811e-04 -1.182861e-04 -2.862788e-04
2.502109e-04 -8.984120e-05 -2.502119e-04
2.858936e-04 4.802528e-05 -2.389457e-04
2.517161e-04 2.517235e-04 -2.791863e-04
1.131699e-04 4.115443e-04 -3.263227e-04
-1.734868e-04 1.734898e-04 -3.057042e-04
-4.115488e-04 1.131794e-04 -3.263257e-04
-4.851850e-04 4.186528e-06 -3.678868e-04
-4.389045e-04 -7.894344e-05 -4.389043e-04
-2.702774e-04 -1.122617e-04 -5.319762e-04
-7.850103e-05 -9.474484e-05 -5.905980e-04
7.849536e-05 -9.474112e-05 -5.905997e-04
2.702725e-04 -1.122594e-04 -5.319752e-04
4.389087e-04 -7.894135e-05 -4.389077e-04
4.851985e-04 4.185829e-06 -3.678972e-04
4.115455e-04 1.131718e-04 -3.263253e-04
1.734829e-04 1.734854e-04 -3.057014e-04
-2.026652e-04 -2.026647e-04 -1.874564e-04
-4.826959e-04 -1.180227e-04 -2.042898e-04
-5.784919e-04 1.019152e-05 -2.276471e-04
-5.319771e-04 1.122701e-04 -2.702731e-04
-3.241662e-04 1.509730e-04 -3.241655e-04
-9.065135e-05 1.264150e-04 -3.684543e-04
9.064707e-05 1.264197e-04 -3.684489e-04
3.241617e-04 1.509773e-04 -3.241595e-04
5.319863e-04 1.122759e-04 -2.702792e-04
5.784982e-04 1.020549e-05 -2.276509e-04
4.826882e-04 -1.180196e-04 -2.042890e-04
2.026658e-04 -2.026662e-04 -1.874554e-04
-1.180269e-04 -4.826953e-04 -2.042897e-04
-2.816589e-04 -2.816608e-04 -1.738632e-04
-3.261772e-04 -1.692516e-05 -1.415688e-04
-2.862950e-04 1.182773e-04 -1.335730e-04
-1.929471e-04 1.483858e-04 -1.929420e-04
-6.920521e-05 1.963321e-04 -1.738526e-04
6.921755e-05 1.963298e-04 -1.738488e-04
1.929395e-04 1.483911e-04 -1.929366e-04
2.862842e-04 1.182852e-04 -1.335847e-04
3.261860e-04 -1.692469e-05 -1.415742e-04
2.816574e-04 -2.816540e-04 -1.738605e-04
1.180253e-04 -4.826898e-04 -2.042888e-04
1.018634e-05 -5.784974e-04 -2.276501e-04
-1.692446e-05 -3.261841e-04 -1.415712e-04
-8.949521e-05 -8.949684e-05 -4.513824e-05
-1.114951e-04 -4.646042e-05 -7.587823e-05
-5.775178e-05 2.677832e-05 -5.775073e-05
-8.607458e-06 5.728099e-05 -5.703862e-05
8.610194e-06 5.727727e-05 -5.703256e-05
5.775481e-05 2.677506e-05 -5.775504e-05
1.114977e-04 -4.645693e-05 -7.588428e-05
8.950010e-05 -8.949544e-05 -4.513899e-05
1.692236e-05 -3.261824e-04 -1.415734e-04
-1.019618e-05 -5.784967e-04 -2.276509e-04
1.122641e-04 -5.319780e-04 -2.702767e-04
1.182817e-04 -2.862825e-04 -1.335826e-04
-4.645647e-05 -1.114879e-04 -7.588521e-05
-4.774169e-05 -4.774122e-05 -8.784141e-05
4.324946e-05 5.535828e-05 4.325528e-05
3.851217e-05 -6.874651e-05 -8.318946e-05
-3.851205e-05 -6.875303e-05 -8.319505e-05
-4.325202e-05 5.535176e-05 4.325295e-05
4.775100e-05 -4.774472e-05 -8.784398e-05
4.646066e-05 -1.114905e-04 -7.587671e-05
-1.182847e-04 -2.862905e-04 -1.335822e-04
-1.122715e-04 -5.319820e-04 -2.702819e-04
1.509814e-04 -3.241605e-04 -3.241619e-04
1.483890e-04 -1.929395e-04 -1.929391e-04
2.676900e-05 -5.775259e-05 -5.774968e-05
5.535828e-05 4.325178e-05 4.325551e-05
-8.671079e-06 -8.672941e-06 -8.671312e-06
-3.473531e-05 -4.923856e-05 -4.924135e-05
3.473391e-05 -4.923460e-05 -4.923972e-05
8.671312e-06 -8.669915e-06 -8.676434e-06
-5.534710e-05 4.325225e-05 4.325341e-05
-2.677832e-05 -5.775306e-05 -5.775387e-05
-1.483925e-04 -1.929467e-04 -1.929373e-04
-1.509790e-04 -3.241602e-04 -3.241589e-04
1.264210e-04 -9.064960e-05 -3.684499e-04
1.963298e-04 -6.921246e-05 -1.738468e-04
5.727541e-05 -8.609786e-06 -5.703559e-05
-6.874744e-05 3.851275e-05 -8.319179e-05
-4.924089e-05 -3.473833e-05 -4.924228e-05
6.950519e-06 6.950053e-06 5.108537e-06
-6.945396e-06 6.946269e-06 5.111564e-06
4.923693e-05 -3.473298e-05 -4.923856e-05
6.875675e-05 3.851589e-05 -8.319854e-05
-5.728193e-05 -8.607924e-06 -5.704165e-05
-1.963363e-04 -6.921074e-05 -1.738443e-04
-1.264197e-04 -9.065021e-05 -3.684505e-04
1.264189e-04 9.064726e-05 -3.684462e-04
1.963330e-04 6.920882e-05 -1.738449e-04
5.727913e-05 8.605944e-06 -5.704002e-05
-6.875489e-05 -3.851007e-05 -8.319458e-05
-4.923763e-05 3.473635e-05 -4.923553e-05
6.946502e-06 -6.947783e-06 5.110865e-06
-6.949296e-06 -6.956165e-06 5.113194e-06
4.924089e-05 3.472716e-05 -4.924554e-05
6.875070e-05 -3.852008e-05 -8.319365e-05
-5.727494e-05 8.602976e-06 -5.703187e-05
-1.963284e-04 6.921409e-05 -1.738523e-04
-1.264241e-04 9.064827e-05 -3.684497e-04
1.509725e-04 3.241615e-04 -3.241595e-04
1.483872e-04 1.929421e-04 -1.929342e-04
2.677739e-05 5.775306e-05 -5.774782e-05
5.535688e-05 -4.325993e-05 4.325970e-05
-8.673407e-06 8.673873e-06 -8.671312e-06
-3.473845e-05 4.924112e-05 -4.923600e-05
3.473333e-05 4.924461e-05 -4.924275e-05
8.674106e-06 8.670148e-06 -8.668052e-06
-5.535455e-05 -4.325551e-05 4.326156e-05
-2.677692e-05 5.774654e-05 -5.774654e-05
-1.483825e-04 1.929345e-04 -1.929365e-04
-1.509750e-04 3.241615e-04 -3.241600e-04
1.122713e-04 5.319819e-04 -2.702794e-04
1.182831e-04 2.862835e-04 -1.335778e-04
-4.646531e-05 1.114940e-04 -7.587066e-05
-4.774216e-05 4.774006e-05 -8.782302e-05
4.326156e-05 -5.535502e-05 4.325667e-05
3.851426e-05 6.875582e-05 -8.320226e-05
-3.851950e-05 6.875349e-05 -8.319737e-05
-4.325644e-05 -5.535688e-05 4.326389e-05
4.775380e-05 4.774914e-05 -8.783839e-05
4.645064e-05 1.115047e-04 -7.588358e-05
-1.182896e-04 2.862827e-04 -1.335623e-04
-1.122598e-04 5.319736e-04 -2.702689e-04
1.019560e-05 5.784984e-04 -2.276490e-04
-1.692167e-05 3.261739e-04 -1.415739e-04
-8.949218e-05 8.949684e-05 -4.514056e-05
-1.114965e-04 4.646415e-05 -7.587275e-05
-5.775178e-05 -2.678065e-05 -5.775236e-05
-8.604722e-06 -5.728612e-05 -5.704211e-05
8.606934e-06 -5.727867e-05 -5.702907e-05
5.774410e-05 -2.677366e-05 -5.774002e-05
1.115042e-04 4.644715e-05 -7.587892e-05
8.950615e-05 8.950289e-05 -4.515029e-05
1.690618e-05 3.261900e-04 -1.415721e-04
-1.019653e-05 5.784985e-04 -2.276440e-04
-1.180281e-04 4.826917e-04 -2.042862e-04
-2.816562e-04 2.816614e-04 -1.738645e-04
-3.261816e-04 1.692621e-05 -1.415763e-04
-2.862923e-04 -1.182819e-04 -1.335808e-04
-1.929390e-04 -1.483862e-04 -1.929364e-04
-6.920844e-05 -1.963349e-04 -1.738463e-04
6.921866e-05 -1.963284e-04 -1.738479e-04
1.929355e-04 -1.483804e-04 -1.929326e-04
2.862764e-04 -1.182898e-04 -1.335661e-04
3.261912e-04 1.690409e-05 -1.415731e-04
2.816614e-04 2.816599e-04 -1.738689e-04
1.180225e-04 4.826994e-04 -2.042879e-04
-2.026644e-04 2.026644e-04 -1.874555e-04
-4.826948e-04 1.180311e-04 -2.042871e-04
-5.784971e-04 -1.019501e-05 -2.276480e-04
-5.319770e-04 -1.122638e-04 -2.702756e-04
-3.241630e-04 -1.509729e-04 -3.241614e-04
-9.065184e-05 -1.264201e-04 -3.684520e-04
9.064819e-05 -1.264218e-04 -3.684514e-04
3.241583e-04 -1.509790e-04 -3.241565e-04
5.319745e-04 -1.122601e-04 -2.702707e-04
5.785021e-04 -1.019530e-05 -2.276442e-04
4.827000e-04 1.180225e-04 -2.042862e-04
2.026644e-04 2.026635e-04 -1.874569e-04
-2.320981e-04 -2.320962e-04 -5.494225e-05
-5.524263e-04 -1.461433e-04 -6.165139e-05
-6.548726e-04 -1.264171e-05 -6.814081e-05
-5.906008e-04 9.475718e-05 -7.850149e-05
-3.684561e-04 1.264149e-04 -9.065022e-05
-1.124034e-04 1.145250e-04 -1.124030e-04
1.124021e-04 1.145334e-04 -1.124007e-04
3.684496e-04 1.264196e-04 -9.064745e-05
5.906018e-04 9.474624e-05 -7.849671e-05